/*--------------------------------*- C++ -*----------------------------------*\
| =========                 |                                                 |
| \\      /  F ield         | OpenFOAM: The Open Source CFD Toolbox           |
|  \\    /   O peration     | Version:  v1906                                 |
|   \\  /    A nd           | Web:      www.OpenFOAM.com                      |
|    \\/     M anipulation  |                                                 |
\*---------------------------------------------------------------------------*/
FoamFile
{
    version     2.0;
    format      ascii;
    class       volScalarField;
    location    "1";
    object      p;
}
// * * * * * * * * * * * * * * * * * * * * * * * * * * * * * * * * * * * * * //

dimensions      [0 2 -2 0 0 0 0];


internalField   nonuniform List<scalar> 
146744
(
0.355141
0.351801
0.348125
0.344975
0.341748
0.338487
0.335217
0.331944
0.328671
0.325399
0.322127
0.318862
0.315615
0.312409
0.309293
0.30634
0.303596
0.35521
0.351766
0.348135
0.344979
0.341751
0.338489
0.335218
0.331945
0.328672
0.325398
0.322126
0.318858
0.315605
0.312385
0.309234
0.306292
0.303167
0.30016
0.355193
0.351779
0.348157
0.344976
0.341749
0.338489
0.335218
0.331945
0.328672
0.325398
0.322124
0.318852
0.315592
0.312357
0.309167
0.306107
0.302958
0.299765
0.355112
0.351803
0.348147
0.344967
0.341744
0.338486
0.335218
0.331946
0.328673
0.325398
0.322122
0.318847
0.315582
0.312332
0.30914
0.355112
0.351804
0.348158
0.344975
0.341746
0.338486
0.335217
0.331944
0.328671
0.325398
0.322128
0.318863
0.315617
0.312414
0.309296
0.306453
0.355268
0.351752
0.34811
0.344976
0.341754
0.33849
0.335218
0.331944
0.32867
0.325397
0.322126
0.31886
0.31561
0.312396
0.309258
0.306336
0.30333
0.300341
0.297635
0.355397
0.351673
0.348074
0.344983
0.341761
0.338493
0.335219
0.331944
0.32867
0.325396
0.322124
0.318854
0.315596
0.312365
0.309191
0.306182
0.303142
0.300028
0.296923
0.29398
0.355371
0.351686
0.348098
0.344975
0.341756
0.338492
0.335219
0.331945
0.328671
0.325397
0.322122
0.318848
0.315582
0.312332
0.30912
0.306049
0.302856
0.299601
0.296383
0.293142
0.290343
0.355207
0.351779
0.348105
0.344968
0.341746
0.338487
0.335218
0.331946
0.328673
0.325398
0.322121
0.318844
0.315572
0.312307
0.309051
0.3059
0.302516
0.29904
0.295788
0.292464
0.289339
0.355188
0.351793
0.348096
0.344972
0.341748
0.338487
0.335217
0.331944
0.32867
0.325397
0.322126
0.318861
0.315613
0.312403
0.309272
0.306356
0.303464
0.300693
0.355439
0.351676
0.348056
0.344978
0.341761
0.338493
0.335218
0.331943
0.328669
0.325395
0.322123
0.318856
0.315602
0.312377
0.309218
0.306223
0.303267
0.300313
0.297344
0.294573
0.355132
0.351154
0.347993
0.345001
0.34177
0.338495
0.335217
0.331942
0.328667
0.325393
0.322119
0.318847
0.315583
0.31234
0.309146
0.306074
0.302987
0.299879
0.296833
0.293895
0.290965
0.355532
0.351198
0.34803
0.34498
0.341764
0.338495
0.335219
0.331944
0.32867
0.325395
0.322119
0.318842
0.315568
0.312305
0.309068
0.305931
0.302698
0.299434
0.296218
0.293134
0.290172
0.287317
0.355355
0.351722
0.348102
0.344969
0.341752
0.338491
0.335219
0.331946
0.328672
0.325396
0.322119
0.318838
0.315558
0.312278
0.308997
0.305765
0.302393
0.298933
0.295551
0.292283
0.289187
0.286236
0.283665
0.35514
0.351803
0.348137
0.344964
0.341742
0.338485
0.335217
0.331945
0.328672
0.325396
0.322117
0.318836
0.31555
0.312248
0.308915
0.305745
0.298255
0.294734
0.29151
0.288066
0.285163
0.282312
0.283781
0.281031
0.278453
0.355276
0.351769
0.348109
0.344973
0.341751
0.33849
0.335217
0.331943
0.328669
0.325396
0.322124
0.318858
0.315606
0.312386
0.309235
0.306254
0.303272
0.300462
0.297771
0.355568
0.351192
0.347998
0.344987
0.341767
0.338494
0.335217
0.331941
0.328666
0.325392
0.322119
0.318849
0.31559
0.312354
0.309171
0.306127
0.303119
0.300154
0.297244
0.294351
0.291803
0.355416
0.351074
0.347875
0.345042
0.34178
0.33849
0.335209
0.331933
0.328658
0.325383
0.322107
0.318832
0.315561
0.312305
0.309086
0.305966
0.302832
0.299734
0.296669
0.293729
0.290924
0.288174
0.355291
0.351138
0.347943
0.344994
0.341773
0.338496
0.335217
0.331942
0.328667
0.325391
0.322113
0.318833
0.315552
0.312278
0.309017
0.305817
0.302546
0.299267
0.296048
0.292959
0.290009
0.287261
0.284635
0.355494
0.351676
0.348078
0.344969
0.341757
0.338493
0.335219
0.331945
0.328671
0.325395
0.322116
0.318832
0.315544
0.312247
0.308938
0.305646
0.302221
0.298745
0.295366
0.292106
0.289026
0.28615
0.283504
0.281015
0.355185
0.351794
0.348134
0.344968
0.341744
0.338486
0.335218
0.331946
0.328672
0.325396
0.322116
0.318832
0.315538
0.312216
0.30885
0.305474
0.301878
0.298261
0.294653
0.291164
0.287946
0.284952
0.282197
0.27968
0.289978
0.286846
0.283667
0.280777
0.278223
0.275907
0.282028
0.279285
0.276611
0.274177
0.274848
0.272444
0.27053
0.270676
0.268664
0.348123
0.344967
0.341744
0.338486
0.335216
0.331943
0.328669
0.325396
0.322124
0.318856
0.315603
0.312381
0.30923
0.306377
0.35535
0.351741
0.348084
0.344975
0.341757
0.338491
0.335217
0.331943
0.328668
0.325393
0.322121
0.318852
0.315596
0.312366
0.309193
0.30617
0.303245
0.300279
0.297543
0.295012
0.355259
0.35116
0.347934
0.345002
0.341772
0.338491
0.335211
0.331936
0.328661
0.325385
0.322111
0.318838
0.315573
0.312326
0.309119
0.306012
0.302977
0.300008
0.297087
0.294279
0.291423
0.355659
0.351043
0.347794
0.345118
0.34178
0.33847
0.335185
0.331908
0.328633
0.325356
0.322078
0.318798
0.315518
0.312246
0.308996
0.30582
0.302653
0.299584
0.29651
0.293565
0.290758
0.288028
0.28567
0.35548
0.351088
0.347825
0.345015
0.34178
0.338493
0.335213
0.331937
0.328662
0.325385
0.322105
0.318822
0.315534
0.312247
0.308965
0.3057
0.302393
0.299104
0.295887
0.292789
0.289854
0.2871
0.284498
0.282138
0.355583
0.351247
0.348046
0.34497
0.34176
0.338493
0.335219
0.331944
0.32867
0.325393
0.322112
0.318825
0.315529
0.312218
0.308882
0.305523
0.302054
0.298582
0.295189
0.291934
0.288855
0.285985
0.283335
0.280849
0.355237
0.351781
0.348077
0.344966
0.341744
0.338487
0.335218
0.331946
0.328672
0.325395
0.322115
0.318828
0.315525
0.312183
0.308795
0.305332
0.301769
0.298154
0.2944
0.290964
0.287757
0.284779
0.282028
0.279525
0.277262
0.290084
0.286603
0.283429
0.280599
0.278055
0.275753
0.273611
0.281943
0.279031
0.27644
0.274136
0.272024
0.277402
0.274671
0.272372
0.270323
0.268485
0.272693
0.270456
0.268447
0.266709
0.268381
0.266441
0.264704
0.264303
0.262634
0.262041
0.260524
0.258333
0.348155
0.344971
0.341745
0.338486
0.335216
0.331943
0.328669
0.325395
0.322121
0.318852
0.315594
0.312363
0.30919
0.306176
0.303436
0.355385
0.351729
0.348075
0.344976
0.341759
0.338492
0.335216
0.331942
0.328666
0.325391
0.322117
0.318845
0.315583
0.312342
0.309145
0.306068
0.303133
0.300246
0.297292
0.294783
0.355301
0.351135
0.347887
0.344999
0.341765
0.338476
0.335197
0.33192
0.328644
0.325369
0.322093
0.318817
0.315545
0.312285
0.309053
0.305892
0.302822
0.299871
0.296944
0.294135
0.291307
0.288905
0.355802
0.351079
0.347827
0.34453
0.341029
0.337686
0.334403
0.331128
0.327852
0.324574
0.321291
0.318005
0.314715
0.311424
0.308154
0.3049
0.301644
0.299387
0.296362
0.293412
0.290606
0.287962
0.28542
0.355562
0.351074
0.347761
0.345049
0.341799
0.338503
0.33522
0.331944
0.328668
0.325391
0.322109
0.318823
0.315528
0.312227
0.30892
0.305604
0.302248
0.29895
0.295718
0.292629
0.289697
0.286944
0.284376
0.281957
0.35563
0.351234
0.348033
0.344963
0.34176
0.338492
0.335216
0.331941
0.328666
0.325389
0.322106
0.318816
0.315512
0.312185
0.308827
0.305406
0.301897
0.298424
0.295014
0.291764
0.288686
0.285824
0.283171
0.280734
0.278462
0.355268
0.351772
0.348133
0.344969
0.341748
0.338488
0.335218
0.331945
0.328671
0.325395
0.322113
0.318822
0.31551
0.312153
0.308734
0.305209
0.301569
0.297847
0.294209
0.290783
0.287578
0.284602
0.281864
0.279365
0.277083
0.293295
0.289842
0.28633
0.283235
0.280423
0.277886
0.275587
0.273493
0.284895
0.2818
0.278846
0.276264
0.273958
0.271902
0.27004
0.27996
0.277145
0.274487
0.272187
0.270153
0.268298
0.272549
0.270271
0.268278
0.266527
0.270448
0.268204
0.266267
0.264595
0.263081
0.265884
0.264141
0.262545
0.26114
0.261841
0.260366
0.259059
0.25938
0.258101
0.256916
0.255724
0.25469
0.253166
0.252363
0.250064
0.247683
0.348199
0.344969
0.341745
0.338486
0.335216
0.331943
0.328668
0.325394
0.32212
0.318848
0.315585
0.312344
0.309151
0.306074
0.303271
0.355378
0.35173
0.348084
0.344973
0.341757
0.338491
0.335216
0.331941
0.328666
0.325389
0.322114
0.31884
0.315572
0.31232
0.309102
0.305964
0.303012
0.300116
0.29715
0.294643
0.355288
0.351139
0.347904
0.344976
0.341755
0.338469
0.33519
0.331913
0.328638
0.32536
0.322082
0.318802
0.315523
0.312251
0.308997
0.305785
0.30268
0.299734
0.296794
0.293987
0.291186
0.288715
0.35575
0.351055
0.347803
0.344433
0.341022
0.337688
0.334406
0.331129
0.327852
0.324571
0.321287
0.318
0.314706
0.311403
0.308099
0.304787
0.301515
0.299238
0.296209
0.293262
0.290457
0.287816
0.285271
0.355535
0.351078
0.347785
0.345015
0.34179
0.338498
0.335219
0.331942
0.328666
0.325388
0.322105
0.318816
0.315513
0.312196
0.308862
0.305485
0.302102
0.298795
0.295563
0.292472
0.289532
0.286779
0.284234
0.281786
0.355622
0.351238
0.348039
0.344958
0.34176
0.338491
0.335215
0.33194
0.328665
0.325387
0.322103
0.318808
0.315495
0.31215
0.308766
0.305287
0.301737
0.298254
0.294848
0.291595
0.288519
0.285656
0.283016
0.280577
0.278386
0.355264
0.351771
0.348079
0.344966
0.341745
0.338487
0.335218
0.331945
0.328671
0.325394
0.322111
0.318816
0.315493
0.312114
0.308673
0.305177
0.301409
0.297662
0.294034
0.290613
0.2874
0.284425
0.281703
0.279211
0.276958
0.274863
0.293118
0.289664
0.286145
0.283071
0.280248
0.277718
0.275426
0.273371
0.284824
0.281555
0.278664
0.276085
0.27379
0.271739
0.269926
0.279853
0.276911
0.274308
0.272009
0.269989
0.268213
0.274953
0.272352
0.270091
0.268106
0.266352
0.264807
0.270139
0.268014
0.266089
0.264428
0.262947
0.265773
0.263949
0.262373
0.260992
0.263428
0.261669
0.260198
0.258933
0.257876
0.259226
0.257924
0.256798
0.255769
0.256628
0.255542
0.25457
0.253707
0.253072
0.252272
0.251573
0.250499
0.249888
0.249342
0.247817
0.247469
0.247069
0.245314
0.245019
0.244769
0.242519
0.242552
0.240069
0.240371
0.237605
0.355335
0.351745
0.348093
0.344971
0.341752
0.33849
0.335217
0.331942
0.328666
0.325389
0.322113
0.318836
0.315563
0.312301
0.309065
0.30588
0.302883
0.299977
0.297011
0.294498
0.355189
0.351172
0.347967
0.34497
0.341761
0.338481
0.335203
0.331927
0.328651
0.325372
0.322093
0.31881
0.315527
0.312244
0.30897
0.30571
0.302582
0.299587
0.296653
0.293837
0.291117
0.288519
0.355538
0.351043
0.347831
0.345117
0.341821
0.338507
0.335222
0.331945
0.328668
0.325388
0.322105
0.318816
0.31552
0.312216
0.308897
0.305553
0.302284
0.2991
0.296057
0.293104
0.290304
0.287679
0.285081
0.355383
0.351114
0.347891
0.345
0.341782
0.338495
0.335215
0.331939
0.328663
0.325383
0.322097
0.318803
0.315494
0.312164
0.308804
0.30537
0.301951
0.298629
0.295386
0.292307
0.289382
0.286623
0.284073
0.281629
0.355565
0.351264
0.348062
0.34496
0.341757
0.338492
0.335217
0.331943
0.328668
0.325389
0.322104
0.318805
0.315484
0.312123
0.308711
0.305169
0.301582
0.298078
0.29468
0.291421
0.288356
0.285485
0.282855
0.280428
0.278178
0.355226
0.351784
0.348133
0.344966
0.341744
0.338486
0.335217
0.331945
0.32867
0.325393
0.32211
0.318812
0.315479
0.312086
0.308625
0.304956
0.301332
0.297482
0.293851
0.290437
0.287227
0.284254
0.281539
0.279054
0.276795
0.274782
0.293017
0.289451
0.285978
0.28289
0.280077
0.277547
0.27527
0.273228
0.271353
0.284612
0.281369
0.27848
0.27591
0.273621
0.271577
0.269735
0.279667
0.27672
0.274131
0.271832
0.269822
0.268031
0.266391
0.27469
0.272176
0.269918
0.267937
0.266198
0.264698
0.270028
0.267837
0.265916
0.264267
0.262815
0.267746
0.265595
0.26377
0.262205
0.260822
0.259672
0.263176
0.261491
0.260025
0.258777
0.257684
0.260656
0.259075
0.257745
0.256637
0.25569
0.256461
0.25536
0.254402
0.253573
0.253858
0.25289
0.252098
0.251401
0.251118
0.250335
0.249717
0.249196
0.247723
0.2473
0.246948
0.24504
0.24485
0.244686
0.242386
0.242395
0.242387
0.239728
0.239919
0.240079
0.237073
0.23746
0.237823
0.23442
0.235077
0.235562
0.231929
0.232646
0.233427
0.229522
0.230356
0.227147
0.22821
0.355253
0.351773
0.348117
0.344971
0.341751
0.338489
0.335217
0.331942
0.328667
0.32539
0.322112
0.318832
0.315553
0.31228
0.30902
0.305777
0.302747
0.299727
0.296961
0.294416
0.355536
0.351644
0.348034
0.344972
0.341763
0.338492
0.335215
0.331939
0.328662
0.325383
0.322102
0.318816
0.315528
0.312235
0.30894
0.305622
0.302465
0.299438
0.296503
0.293709
0.290866
0.28847
0.35528
0.351115
0.347949
0.344983
0.341767
0.338477
0.335195
0.331919
0.328641
0.32536
0.322073
0.31878
0.315479
0.312164
0.308826
0.305424
0.302116
0.298976
0.295894
0.292949
0.290154
0.287529
0.284943
0.355158
0.351164
0.347994
0.344969
0.341769
0.338492
0.335214
0.331939
0.328662
0.325382
0.322094
0.318797
0.315481
0.312139
0.308754
0.305253
0.301804
0.298471
0.29523
0.292145
0.289213
0.286462
0.28392
0.281482
0.355458
0.351677
0.348092
0.344963
0.341754
0.338491
0.335218
0.331944
0.328669
0.32539
0.322104
0.318803
0.315475
0.312101
0.308666
0.305053
0.301429
0.297897
0.294497
0.291248
0.288187
0.285332
0.282698
0.280283
0.278032
0.35517
0.351796
0.348172
0.344965
0.341743
0.338486
0.335217
0.331944
0.32867
0.325393
0.32211
0.31881
0.315472
0.312069
0.308592
0.304848
0.301071
0.297402
0.293655
0.290248
0.287051
0.284086
0.28137
0.278891
0.276644
0.274583
0.292688
0.289278
0.285775
0.282703
0.279902
0.277387
0.27511
0.273077
0.271233
0.284414
0.281175
0.278301
0.275734
0.273464
0.271423
0.269609
0.279484
0.276539
0.273946
0.271666
0.269662
0.267868
0.266296
0.274555
0.271985
0.269736
0.267771
0.266041
0.264553
0.269871
0.267654
0.265743
0.264101
0.262631
0.261307
0.267568
0.265409
0.26359
0.262036
0.260672
0.259456
0.262955
0.261305
0.259853
0.258622
0.25763
0.260325
0.25888
0.257568
0.256471
0.255513
0.256316
0.25518
0.254238
0.253408
0.253598
0.252704
0.251926
0.25125
0.250737
0.250855
0.250148
0.249547
0.249039
0.248601
0.247956
0.247545
0.247128
0.246783
0.246496
0.244882
0.24468
0.244524
0.244383
0.242209
0.242217
0.242229
0.242239
0.239533
0.239748
0.239948
0.240079
0.236878
0.237303
0.237675
0.234287
0.234904
0.23538
0.231745
0.232544
0.233233
0.228074
0.229292
0.230252
0.231064
0.225581
0.226918
0.228014
0.223208
0.224636
0.225877
0.220975
0.222438
0.223888
0.218838
0.22046
0.216848
0.355167
0.351797
0.348114
0.344972
0.341747
0.338487
0.335216
0.331942
0.328667
0.32539
0.322111
0.318829
0.315545
0.312259
0.308977
0.305665
0.302614
0.299701
0.296851
0.355397
0.351695
0.348081
0.344972
0.341758
0.338492
0.335217
0.331942
0.328665
0.325386
0.322104
0.318816
0.315522
0.312219
0.308899
0.30552
0.302329
0.299308
0.296363
0.293545
0.29075
0.28837
0.355492
0.351197
0.348042
0.344976
0.341765
0.338491
0.335213
0.331938
0.328661
0.32538
0.322094
0.3188
0.315493
0.312166
0.308805
0.305343
0.302007
0.298823
0.295746
0.2928
0.289997
0.28738
0.284738
0.355523
0.351634
0.348061
0.344968
0.341761
0.338493
0.335218
0.331943
0.328666
0.325386
0.322098
0.318799
0.315479
0.312123
0.308714
0.305148
0.301665
0.298312
0.295069
0.29198
0.289047
0.286315
0.283771
0.281342
0.355312
0.351734
0.348124
0.344966
0.34175
0.33849
0.335218
0.331945
0.328669
0.325391
0.322105
0.318804
0.315471
0.312083
0.308624
0.304952
0.301273
0.297723
0.294316
0.291077
0.288014
0.285171
0.282535
0.280141
0.277882
0.355111
0.351802
0.300901
0.297241
0.293489
0.290048
0.286875
0.283916
0.281206
0.278736
0.276493
0.274446
0.289001
0.285597
0.282527
0.279737
0.277216
0.274955
0.272928
0.271097
0.284199
0.280981
0.278127
0.275567
0.273297
0.271269
0.269457
0.279265
0.276348
0.273768
0.271484
0.269503
0.267714
0.266191
0.274418
0.2718
0.269563
0.267603
0.265887
0.264394
0.269678
0.267478
0.265575
0.263939
0.262483
0.261205
0.267379
0.265227
0.263414
0.261875
0.260522
0.25936
0.262772
0.261131
0.259691
0.258459
0.257441
0.260207
0.258702
0.257396
0.256309
0.255356
0.256129
0.255004
0.254076
0.253255
0.252609
0.253355
0.252517
0.251751
0.251094
0.250511
0.250633
0.249974
0.249382
0.248887
0.248444
0.247823
0.247356
0.246961
0.246642
0.246336
0.244908
0.244696
0.244512
0.244365
0.244235
0.241921
0.242011
0.242044
0.242066
0.242095
0.239045
0.239341
0.239579
0.239792
0.239966
0.236211
0.236693
0.237136
0.23752
0.237856
0.233348
0.234093
0.234736
0.235289
0.235735
0.230534
0.23156
0.232378
0.233092
0.227969
0.22911
0.230091
0.230886
0.2254
0.226748
0.227882
0.228859
0.223027
0.224482
0.225765
0.226908
0.218961
0.220765
0.222339
0.223701
0.216672
0.218641
0.22031
0.221831
0.212441
0.214675
0.216647
0.218389
0.210523
0.212772
0.214799
0.20885
0.21099
0.20722
0.302447
0.299663
0.355223
0.351767
0.348139
0.344974
0.341751
0.33849
0.335217
0.331943
0.328667
0.325388
0.322106
0.318817
0.315518
0.312202
0.30886
0.305407
0.30219
0.299155
0.296213
0.293318
0.290698
0.355352
0.351689
0.348108
0.344975
0.341757
0.338491
0.335217
0.331942
0.328666
0.325386
0.322101
0.318806
0.315494
0.312154
0.308771
0.305232
0.301874
0.298669
0.295604
0.292642
0.28986
0.287145
0.284753
0.355323
0.351712
0.348131
0.344972
0.341754
0.338491
0.335218
0.331944
0.328668
0.325388
0.322102
0.318803
0.315478
0.312109
0.308677
0.305039
0.30151
0.298155
0.294908
0.29182
0.288893
0.286162
0.283621
0.281133
0.35518
0.351791
0.348158
0.344967
0.341745
0.338487
0.335217
0.331944
0.328669
0.325391
0.322107
0.318805
0.315468
0.31207
0.308596
0.304875
0.301171
0.297541
0.294143
0.29091
0.287855
0.285006
0.282385
0.279981
0.277741
0.296789
0.293368
0.28988
0.286702
0.283744
0.281045
0.278586
0.27635
0.274296
0.288784
0.285407
0.282348
0.279565
0.277062
0.274806
0.272786
0.270948
0.283949
0.280782
0.277945
0.2754
0.273142
0.271121
0.269313
0.279043
0.276142
0.273595
0.271335
0.269342
0.267565
0.265993
0.274102
0.271628
0.269391
0.267446
0.265734
0.264251
0.269472
0.267296
0.265408
0.263781
0.262334
0.261067
0.267179
0.265037
0.263237
0.261705
0.260369
0.259216
0.262558
0.260948
0.259524
0.258299
0.257289
0.259992
0.258512
0.257225
0.256148
0.255208
0.25594
0.254829
0.253906
0.253104
0.252418
0.253239
0.25235
0.251587
0.250935
0.250362
0.250378
0.249796
0.249229
0.248745
0.248337
0.24762
0.247179
0.246802
0.246498
0.246316
0.244717
0.24451
0.244351
0.244212
0.244108
0.241795
0.241831
0.241877
0.241908
0.241855
0.238871
0.239155
0.239407
0.239621
0.23977
0.235958
0.236503
0.236965
0.237358
0.237706
0.2331
0.233905
0.234568
0.235136
0.235625
0.23043
0.231374
0.232217
0.232942
0.233544
0.227759
0.228931
0.229924
0.230792
0.223565
0.225216
0.226574
0.22772
0.228638
0.221095
0.222838
0.224319
0.225607
0.226685
0.218775
0.220592
0.222176
0.22356
0.214279
0.216554
0.218477
0.220158
0.221603
0.21223
0.214515
0.216494
0.218234
0.207762
0.210356
0.212627
0.21464
0.216425
0.206006
0.208611
0.21088
0.212928
0.201683
0.204508
0.207014
0.209299
0.197519
0.200273
0.203123
0.205575
0.196349
0.199223
0.201763
0.35512
0.351803
0.348177
0.344976
0.341747
0.338487
0.335217
0.331943
0.328667
0.325389
0.322106
0.318816
0.315512
0.312185
0.308818
0.305246
0.302051
0.299093
0.295994
0.293321
0.355175
0.351784
0.348111
0.344977
0.341749
0.338488
0.335217
0.331943
0.328668
0.325389
0.322105
0.31881
0.315494
0.312141
0.30874
0.305247
0.301746
0.298502
0.295449
0.292493
0.289656
0.286965
0.355165
0.351793
0.348178
0.344975
0.341748
0.338488
0.335217
0.331944
0.328668
0.32539
0.322105
0.318807
0.31548
0.312102
0.30865
0.304973
0.301466
0.297976
0.294741
0.291663
0.288739
0.286016
0.283418
0.281137
0.30086
0.297477
0.294049
0.290739
0.287697
0.28485
0.282232
0.279841
0.27763
0.293118
0.289778
0.286521
0.283578
0.280886
0.278434
0.27621
0.274142
0.28528
0.282172
0.279401
0.276904
0.274654
0.272627
0.28063
0.277764
0.275233
0.272986
0.270968
0.269153
0.275979
0.273418
0.27117
0.269191
0.26743
0.265862
0.274015
0.271432
0.269215
0.267286
0.26558
0.264119
0.269298
0.267111
0.265236
0.263618
0.262187
0.260898
0.266984
0.264842
0.263066
0.261545
0.260217
0.259084
0.26236
0.260764
0.259349
0.25815
0.257141
0.259783
0.258328
0.257051
0.255989
0.255061
0.255746
0.254652
0.253735
0.252949
0.252274
0.253048
0.252175
0.251425
0.250779
0.250221
0.250131
0.24962
0.249059
0.248596
0.248253
0.247407
0.247
0.246632
0.24635
0.246137
0.24453
0.24433
0.244195
0.244058
0.243955
0.241595
0.241645
0.241709
0.241751
0.241792
0.238672
0.238968
0.239246
0.239457
0.239633
0.235766
0.236315
0.236797
0.237189
0.237431
0.233005
0.233717
0.234397
0.234976
0.235472
0.230214
0.231195
0.232056
0.232793
0.233435
0.227537
0.228756
0.229764
0.230663
0.231481
0.223499
0.225026
0.226403
0.227565
0.228564
0.220905
0.222664
0.224156
0.225453
0.226522
0.216389
0.218561
0.220419
0.222012
0.223436
0.224707
0.214124
0.216372
0.218313
0.219998
0.221455
0.209441
0.212088
0.214345
0.216337
0.218096
0.219652
0.207592
0.210183
0.212462
0.214497
0.216271
0.203013
0.205898
0.208444
0.210723
0.212779
0.214643
0.198491
0.201576
0.204344
0.206855
0.209119
0.211178
0.194086
0.197321
0.200255
0.202932
0.205391
0.207675
0.18997
0.193135
0.196211
0.199041
0.201701
0.204094
0.186176
0.18927
0.192336
0.195193
0.198032
0.188757
0.191601
0.298307
0.29539
0.292276
0.289574
0.297787
0.29468
0.29152
0.288573
0.285865
0.283248
0.293828
0.290645
0.28753
0.284697
0.282091
0.279627
0.289561
0.286396
0.283411
0.280729
0.278285
0.276031
0.285047
0.282032
0.279241
0.276749
0.274509
0.272445
0.280454
0.277595
0.27507
0.27283
0.270823
0.268979
0.275765
0.273238
0.271009
0.269041
0.267296
0.271256
0.269047
0.267127
0.265428
0.263968
0.269037
0.266941
0.265072
0.263468
0.26207
0.264646
0.262894
0.261387
0.26006
0.25889
0.262127
0.260589
0.259186
0.257994
0.257024
0.259661
0.25815
0.256884
0.255835
0.254915
0.255556
0.254479
0.253593
0.252797
0.252161
0.252763
0.251996
0.251266
0.250628
0.250082
0.249996
0.249442
0.248884
0.248436
0.248055
0.247231
0.246809
0.246466
0.246191
0.246044
0.244326
0.244144
0.244012
0.243906
0.243809
0.241395
0.241458
0.241541
0.241601
0.241653
0.238475
0.238784
0.239054
0.239299
0.239496
0.235594
0.236135
0.236626
0.237027
0.237247
0.232864
0.233545
0.234223
0.234814
0.235283
0.230011
0.231022
0.231894
0.23265
0.233301
0.22585
0.227359
0.228587
0.229596
0.230512
0.231246
0.223303
0.224855
0.226239
0.227402
0.228431
0.220744
0.222482
0.223994
0.225296
0.226331
0.216275
0.21838
0.220246
0.221854
0.223287
0.224541
0.213967
0.216195
0.218146
0.219843
0.221341
0.20939
0.21189
0.214175
0.216177
0.217943
0.21948
0.204467
0.20742
0.210015
0.212296
0.214342
0.216151
0.199734
0.202829
0.205718
0.208278
0.210567
0.212632
0.214432
0.195007
0.19831
0.201397
0.204177
0.206693
0.208969
0.211045
0.190527
0.193997
0.197149
0.200078
0.202778
0.205243
0.207525
0.182943
0.186462
0.189872
0.19305
0.196062
0.198891
0.201498
0.20398
0.176061
0.179321
0.18273
0.186001
0.189185
0.19222
0.19509
0.197807
0.200472
0.176281
0.179325
0.1824
0.185564
0.188555
0.191523
0.194217
0.196728
0.182382
0.185158
0.187944
0.288308
0.287385
0.284539
0.281941
0.286149
0.283324
0.280588
0.278152
0.27588
0.281839
0.279125
0.276598
0.274349
0.272349
0.277447
0.274911
0.272674
0.270689
0.275588
0.273078
0.27085
0.268887
0.267112
0.271017
0.268877
0.26697
0.265286
0.263717
0.266761
0.264913
0.263315
0.261902
0.264471
0.262734
0.26123
0.259908
0.258728
0.261981
0.260415
0.259023
0.257842
0.25682
0.257957
0.256713
0.25568
0.254829
0.255295
0.254305
0.253433
0.252664
0.252607
0.251821
0.251105
0.250478
0.249949
0.24988
0.249258
0.248726
0.248272
0.247875
0.247016
0.246621
0.246298
0.246027
0.245821
0.244108
0.243951
0.243843
0.243747
0.243709
0.241186
0.241269
0.241366
0.241446
0.241516
0.238273
0.238599
0.238899
0.239151
0.239349
0.23539
0.235957
0.236465
0.236879
0.237129
0.232649
0.233369
0.234068
0.234662
0.235194
0.229818
0.230849
0.231734
0.232494
0.233163
0.225667
0.227171
0.228414
0.229425
0.230358
0.231158
0.223124
0.224675
0.22606
0.227248
0.228281
0.220546
0.222305
0.223823
0.225138
0.226184
0.216063
0.218191
0.22008
0.221697
0.223139
0.224399
0.213783
0.216018
0.217973
0.219687
0.221218
0.209125
0.211709
0.214
0.216019
0.217793
0.219296
0.204279
0.207234
0.209837
0.212131
0.214185
0.216016
0.217665
0.199452
0.202691
0.205538
0.208113
0.210412
0.212479
0.214331
0.191425
0.194792
0.198183
0.201221
0.204013
0.206534
0.208819
0.210897
0.183262
0.186817
0.19047
0.193816
0.196979
0.199907
0.202618
0.205095
0.207361
0.20945
0.165646
0.168868
0.172134
0.175818
0.179282
0.182877
0.18634
0.189692
0.19288
0.195901
0.198743
0.201361
0.20377
0.206006
0.166227
0.169232
0.172615
0.175916
0.179274
0.18257
0.185837
0.189012
0.192054
0.194944
0.197663
0.200283
0.20254
0.169797
0.172846
0.176064
0.179198
0.182324
0.185397
0.188407
0.19129
0.194063
0.196764
0.173331
0.176036
0.179136
0.182092
0.184985
0.187896
0.190661
0.276398
0.274255
0.274739
0.272604
0.270552
0.272933
0.27071
0.268745
0.266966
0.268754
0.266815
0.265098
0.266589
0.264753
0.263166
0.261777
0.264383
0.262574
0.261074
0.259805
0.260225
0.25886
0.257689
0.256627
0.257785
0.256551
0.25553
0.254638
0.255149
0.254137
0.253275
0.252566
0.252467
0.251646
0.250943
0.250332
0.249589
0.249069
0.248561
0.248112
0.247799
0.24678
0.246436
0.246127
0.245861
0.245621
0.243898
0.243765
0.24367
0.243588
0.243487
0.241031
0.241083
0.241202
0.241292
0.241362
0.238073
0.238409
0.238736
0.239003
0.23924
0.235168
0.235772
0.236302
0.236742
0.237145
0.23241
0.233186
0.233904
0.234517
0.235059
0.229637
0.230673
0.231559
0.232332
0.233012
0.225446
0.226984
0.228237
0.229279
0.230207
0.231044
0.222926
0.224491
0.225889
0.22709
0.228128
0.22035
0.222123
0.223667
0.224984
0.226034
0.21587
0.21801
0.219904
0.221535
0.222986
0.224258
0.211021
0.213599
0.215837
0.217834
0.219535
0.221071
0.208903
0.211535
0.213832
0.215853
0.217643
0.219167
0.204085
0.207056
0.209665
0.211946
0.214025
0.215861
0.217522
0.199245
0.2025
0.205367
0.207945
0.210254
0.212331
0.214141
0.190966
0.194676
0.197993
0.20105
0.203843
0.206374
0.208666
0.210746
0.155359
0.158219
0.16134
0.16459
0.16802
0.171743
0.17544
0.179217
0.182976
0.1866
0.190284
0.193634
0.1968
0.199748
0.202457
0.204939
0.207198
0.209252
0.156602
0.159207
0.16224
0.165393
0.168681
0.172097
0.175619
0.179157
0.182693
0.186164
0.189515
0.192717
0.195741
0.198579
0.20121
0.203624
0.20587
0.160269
0.163058
0.166085
0.169234
0.172455
0.175759
0.179096
0.182397
0.185667
0.188845
0.191899
0.194791
0.197512
0.200057
0.202448
0.163844
0.166738
0.16972
0.172779
0.175892
0.179026
0.18216
0.185237
0.188247
0.191152
0.193903
0.196651
0.198977
0.170064
0.173012
0.176004
0.178966
0.181928
0.184839
0.18771
0.190576
0.193095
0.178934
0.181721
0.184414
0.266645
0.264546
0.263051
0.262399
0.260976
0.259631
0.260041
0.2587
0.257545
0.257627
0.256387
0.255373
0.254419
0.255078
0.253967
0.253109
0.25244
0.251468
0.250779
0.250212
0.248896
0.248399
0.247971
0.246263
0.245963
0.245701
0.24543
0.243586
0.243504
0.243422
0.243397
0.240903
0.241034
0.241133
0.241224
0.237745
0.238226
0.238573
0.238854
0.239092
0.235035
0.235585
0.23614
0.236594
0.236982
0.232164
0.233001
0.233738
0.234356
0.2349
0.229481
0.230493
0.231395
0.232183
0.232838
0.226796
0.228058
0.229116
0.230051
0.22272
0.224298
0.225718
0.22693
0.227957
0.220151
0.221939
0.22349
0.22483
0.225923
0.215675
0.217815
0.219725
0.22137
0.22283
0.224064
0.210819
0.213401
0.215651
0.21764
0.219371
0.220894
0.208697
0.211349
0.213657
0.215688
0.217488
0.219042
0.145543
0.203892
0.206873
0.209485
0.211778
0.213871
0.215715
0.217431
0.147216
0.149565
0.152439
0.195745
0.199053
0.202322
0.205195
0.207781
0.210096
0.212178
0.214039
0.148748
0.151183
0.153862
0.15682
0.16013
0.187228
0.190811
0.194512
0.197806
0.200876
0.203671
0.206218
0.208514
0.210598
0.152533
0.155185
0.158039
0.161118
0.164408
0.167933
0.171513
0.175257
0.178973
0.18281
0.186551
0.190097
0.193452
0.19663
0.199595
0.2023
0.204785
0.20705
0.209115
0.153845
0.156363
0.159143
0.162079
0.165215
0.168502
0.171924
0.175443
0.178986
0.182508
0.185989
0.189344
0.192549
0.195578
0.198423
0.201056
0.203477
0.205729
0.157467
0.16009
0.162953
0.165927
0.169055
0.172291
0.175603
0.178944
0.182235
0.185502
0.188673
0.191733
0.194632
0.197358
0.199903
0.20231
0.161034
0.1637
0.166588
0.16955
0.172606
0.175734
0.178874
0.181995
0.185077
0.188096
0.191
0.193767
0.196496
0.198842
0.167072
0.169918
0.17291
0.17585
0.178814
0.181775
0.184693
0.187549
0.190369
0.193045
0.173214
0.176006
0.178773
0.181578
0.184347
0.187075
0.258369
0.256206
0.255274
0.253781
0.252993
0.251299
0.250674
0.249977
0.248798
0.248231
0.247906
0.246088
0.245801
0.245535
0.243447
0.243342
0.243339
0.240723
0.240866
0.240972
0.238127
0.238409
0.238695
0.235412
0.235978
0.236436
0.232001
0.232817
0.233575
0.234205
0.22926
0.230314
0.231233
0.232027
0.226645
0.227883
0.228958
0.229822
0.222378
0.224104
0.22555
0.226776
0.227819
0.133319
0.219967
0.221757
0.223321
0.224674
0.225885
0.135448
0.137165
0.215406
0.217623
0.219553
0.221208
0.222674
0.224012
0.137488
0.139282
0.213206
0.215472
0.217471
0.219216
0.220695
0.13941
0.141291
0.143472
0.208522
0.211159
0.213482
0.215528
0.217341
0.21897
0.141154
0.143117
0.145314
0.147812
0.150551
0.20369
0.206687
0.209312
0.211639
0.213714
0.215555
0.144764
0.147032
0.149485
0.152249
0.15533
0.195508
0.198847
0.202135
0.205018
0.207611
0.209926
0.212025
0.213911
0.146344
0.148609
0.151024
0.153688
0.156626
0.159913
0.163318
0.166841
0.186874
0.190561
0.194334
0.197623
0.2007
0.203502
0.206055
0.208364
0.210452
0.150049
0.152427
0.155022
0.157861
0.160924
0.164204
0.16767
0.171302
0.175065
0.17886
0.182634
0.186367
0.189901
0.19328
0.196456
0.1994
0.202144
0.204631
0.206906
0.209045
0.153595
0.156235
0.158973
0.161905
0.165036
0.168324
0.171741
0.175262
0.178813
0.182333
0.1858
0.189164
0.192368
0.195401
0.198267
0.200904
0.203331
0.205587
0.157283
0.159974
0.162784
0.165764
0.168881
0.17214
0.175452
0.178796
0.18206
0.185338
0.188515
0.191572
0.194475
0.197209
0.199761
0.20217
0.160829
0.163596
0.166424
0.169384
0.172447
0.175575
0.178719
0.181827
0.184932
0.187939
0.190851
0.193626
0.19628
0.198755
0.164305
0.166943
0.169856
0.172745
0.175692
0.178664
0.181628
0.184557
0.187403
0.19022