/*--------------------------------*- C++ -*----------------------------------*\
| =========                 |                                                 |
| \\      /  F ield         | OpenFOAM: The Open Source CFD Toolbox           |
|  \\    /   O peration     | Version:  v1906                                 |
|   \\  /    A nd           | Web:      www.OpenFOAM.com                      |
|    \\/     M anipulation  |                                                 |
\*---------------------------------------------------------------------------*/
FoamFile
{
    version     2.0;
    format      ascii;
    class       volScalarField;
    location    "1";
    object      s;
}
// * * * * * * * * * * * * * * * * * * * * * * * * * * * * * * * * * * * * * //

dimensions      [0 0 0 0 0 0 0];


internalField   nonuniform List<scalar> 
146744
(
0.00523743
0.013312
0.0176317
0.0327896
0.0527356
0.0768241
0.10106
0.121923
0.13627
0.143665
0.147035
0.150742
0.15703
0.164822
0.179322
0.22125
0.257798
0.00220385
0.00336885
0.00544665
0.0135084
0.0253395
0.0408342
0.0581659
0.0749734
0.0884718
0.0980935
0.107105
0.119961
0.136937
0.155321
0.181467
0.229834
0.281577
0.308937
0.0032535
0.00573133
0.010041
0.0209374
0.0356521
0.0544185
0.074424
0.0934424
0.109852
0.124828
0.142267
0.165603
0.194034
0.223327
0.25636
0.300216
0.322854
0.338545
0.00638092
0.021321
0.0352397
0.0533622
0.0789894
0.106524
0.13288
0.155743
0.174407
0.190206
0.205338
0.223865
0.243622
0.262213
0.279431
0.00755701
0.0280295
0.0347269
0.0553336
0.0811333
0.109448
0.134324
0.154105
0.168291
0.173968
0.172187
0.167426
0.163477
0.160073
0.159789
0.178151
0.00119938
0.00134214
0.00163426
0.00382196
0.00701595
0.0118316
0.017693
0.0234853
0.0275094
0.0286384
0.0272804
0.0250273
0.0235803
0.0245317
0.0341067
0.0662631
0.137543
0.193281
0.243222
0.000314656
7.87521e-05
0.000120672
0.000367381
0.000801069
0.00158442
0.00267978
0.00391796
0.00500116
0.00578901
0.00664392
0.00887143
0.0144135
0.0255806
0.0452327
0.0762195
0.12205
0.183634
0.245796
0.2944
0.000380382
0.000129109
0.000304494
0.000856077
0.00189821
0.0037537
0.00643418
0.010294
0.015903
0.0240531
0.0382026
0.0613125
0.0934354
0.130728
0.17025
0.210845
0.241158
0.275981
0.305602
0.334611
0.352123
0.001709
0.00291178
0.0104211
0.0215467
0.0366387
0.0564955
0.0787901
0.101289
0.122514
0.143348
0.165815
0.188594
0.2099
0.229242
0.248852
0.272122
0.295905
0.315139
0.332722
0.352126
0.360455
0.00319938
0.00648175
0.00905171
0.0206822
0.0350235
0.0536152
0.073821
0.0923108
0.105313
0.110382
0.108124
0.102537
0.0980549
0.0956108
0.0953729
0.103961
0.128613
0.148445
0.000392554
9.85737e-05
0.000113155
0.000303787
0.000620685
0.00114758
0.00183345
0.00255467
0.00311365
0.00337095
0.0033211
0.00309296
0.00292493
0.00322457
0.00458858
0.00842499
0.0200793
0.068432
0.141614
0.197942
3.45805e-05
1.01683e-06
2.83807e-06
1.05926e-05
2.29231e-05
4.56801e-05
7.94673e-05
0.000122681
0.000173369
0.000246933
0.000433757
0.000993472
0.00255925
0.00807067
0.0223067
0.0413307
0.0561908
0.0725592
0.107241
0.176309
0.241144
7.72196e-05
7.2069e-06
1.57732e-05
4.95988e-05
0.000115221
0.000250305
0.000491894
0.000904705
0.00164453
0.00328663
0.00860302
0.0249127
0.0524162
0.0879687
0.125824
0.157977
0.183897
0.201904
0.20785
0.228042
0.267108
0.314344
0.00062325
0.000357231
0.00128994
0.00287642
0.00557675
0.0101892
0.0175653
0.0299519
0.0477979
0.0715416
0.101786
0.13651
0.168109
0.190956
0.20823
0.226273
0.243374
0.257093
0.271647
0.289399
0.310872
0.341422
0.355787
0.0054594
0.0155659
0.0292563
0.0493137
0.0742173
0.10146
0.127734
0.148824
0.160923
0.168443
0.170064
0.167215
0.162828
0.157679
0.15256
0.149409
0.183145
0.216288
0.25516
0.290625
0.329383
0.358299
0.265594
0.316991
0.339549
0.00133423
0.0018233
0.00216395
0.00478851
0.0084329
0.0136202
0.0199626
0.0266136
0.032479
0.0365155
0.0379561
0.037166
0.0357497
0.0353256
0.0378125
0.0483961
0.0749129
0.108296
0.13776
0.000124464
6.63026e-06
1.23416e-05
3.76995e-05
8.00738e-05
0.000152184
0.000251394
0.000366323
0.000473683
0.000550117
0.000592636
0.000626321
0.000742566
0.00103152
0.00177269
0.00429502
0.00875256
0.0183658
0.0584852
0.126296
0.182183
1.21546e-05
1.00872e-07
2.81619e-07
1.61864e-06
3.34207e-06
5.25184e-06
7.1046e-06
9.13079e-06
1.29727e-05
3.47839e-05
0.00011266
0.000402563
0.00168688
0.00752756
0.0231236
0.0434308
0.0586021
0.0613235
0.0606261
0.0769408
0.13414
0.21657
2.22419e-05
9.53313e-07
2.13413e-06
7.70959e-06
1.78425e-05
3.8589e-05
8.00411e-05
0.000169045
0.00038954
0.00106556
0.00347296
0.0137715
0.0383186
0.0723774
0.105768
0.13064
0.150613
0.163956
0.160613
0.1575
0.164126
0.210854
0.281043
0.000239418
6.54966e-05
0.000240703
0.000614191
0.00133017
0.00267769
0.00502621
0.00933236
0.0186421
0.0394227
0.0704102
0.106181
0.135839
0.151813
0.157376
0.164479
0.175376
0.190369
0.202646
0.219157
0.230288
0.250004
0.295281
0.333889
0.00316373
0.00682091
0.023468
0.0401927
0.0623555
0.0882185
0.114175
0.132826
0.143221
0.149299
0.148427
0.140707
0.12737
0.111281
0.0993572
0.0976704
0.108636
0.128093
0.158104
0.190303
0.228654
0.265223
0.30531
0.339933
0.110905
0.156146
0.208066
0.266527
0.32189
0.34813
0.135695
0.184019
0.257049
0.315754
0.175123
0.249208
0.289712
0.182538
0.232877
0.0269769
0.0459841
0.0713614
0.100032
0.128332
0.152823
0.170324
0.178288
0.176245
0.168202
0.158231
0.14656
0.133716
0.131937
0.000659441
0.000575741
0.000674763
0.00152621
0.00285889
0.00491699
0.00755133
0.0103514
0.0126823
0.0142207
0.0149781
0.0152045
0.0152177
0.0152448
0.0162133
0.0219116
0.0387361
0.0717528
0.114729
0.137724
3.13358e-05
1.53299e-06
2.58411e-06
8.71699e-06
1.82008e-05
3.32462e-05
5.43018e-05
8.10431e-05
0.000111598
0.000145571
0.000193422
0.000289196
0.000426674
0.0008685
0.00238905
0.00598715
0.0106547
0.0145475
0.0260872
0.0656457
0.143263
4.86591e-06
5.40264e-07
1.5034e-07
4.68473e-07
1.13163e-06
2.05562e-06
3.12425e-06
4.3447e-06
8.86218e-06
2.56963e-05
0.000100612
0.000541772
0.00264146
0.0123389
0.0301069
0.0491829
0.0643658
0.0721515
0.0709235
0.0609862
0.0774592
0.152704
0.225342
1.15721e-05
2.80928e-07
5.12105e-07
2.34069e-06
5.47873e-06
1.17527e-05
2.59832e-05
6.49005e-05
0.000192476
0.000691903
0.00275332
0.0125018
0.0377327
0.0706245
0.0955868
0.10764
0.115364
0.126229
0.12933
0.131598
0.122236
0.134491
0.201748
0.272241
0.000147755
4.30445e-05
8.68216e-05
0.000246713
0.000573969
0.00122117
0.00248373
0.00512468
0.0117615
0.030479
0.0607988
0.0938863
0.115049
0.116362
0.104634
0.0960169
0.0958509
0.104863
0.12144
0.144779
0.163177
0.174771
0.205386
0.265385
0.00243085
0.0026518
0.0149584
0.0292798
0.0481947
0.0703841
0.093953
0.115794
0.129347
0.134196
0.129102
0.116999
0.0908061
0.0645217
0.047346
0.0421311
0.0493702
0.06427
0.079605
0.106286
0.142135
0.179347
0.218784
0.267429
0.321055
0.0628041
0.0949059
0.134767
0.189158
0.254742
0.313253
0.337524
0.0809204
0.135146
0.20562
0.282948
0.329287
0.081402
0.139331
0.221651
0.294931
0.307184
0.0808908
0.148025
0.233629
0.280228
0.0890485
0.160358
0.23302
0.099763
0.173375
0.0711991
0.118053
0.0882673
0.0248553
0.0402786
0.0622931
0.0883387
0.114843
0.135973
0.150809
0.159129
0.159776
0.154267
0.145616
0.13507
0.123151
0.118346
0.118522
0.000320927
0.000209404
0.000231456
0.000496197
0.00100071
0.00184652
0.00305377
0.00454971
0.00608893
0.00736964
0.00823007
0.00881571
0.00941921
0.0101563
0.0113835
0.0151421
0.0260823
0.0466784
0.0873448
0.132995
5.10359e-06
3.39242e-07
6.64664e-07
2.37971e-06
5.3565e-06
1.0504e-05
1.91926e-05
3.41603e-05
6.16081e-05
0.000108431
0.000178175
0.000274812
0.000607272
0.00168435
0.00424063
0.00977481
0.016288
0.0202712
0.0251929
0.0474327
0.113094
0.166337
1.69577e-06
1.47167e-06
6.61879e-07
6.88142e-07
1.59983e-06
2.99548e-06
6.03755e-06
1.81392e-05
9.94703e-05
0.000528442
0.00199884
0.0057823
0.0153663
0.0347937
0.0560739
0.06853
0.0760543
0.0736786
0.0761018
0.0691552
0.0641399
0.106856
0.197835
6.54199e-06
2.5581e-07
2.60204e-07
1.20302e-06
2.95526e-06
6.89667e-06
1.78947e-05
5.64049e-05
0.000204305
0.000876822
0.00375345
0.0166675
0.0452736
0.0739361
0.0865594
0.0867934
0.0849039
0.0871332
0.0940369
0.105027
0.107107
0.105111
0.143458
0.234894
6.56842e-05
1.60768e-05
3.29204e-05
0.000102189
0.000267852
0.000634425
0.0014592
0.00344331
0.00943257
0.0288468
0.0598307
0.0889683
0.0981957
0.0847536
0.0634582
0.0495498
0.0437492
0.0440361
0.0540798
0.075756
0.101727
0.12345
0.1489
0.20148
0.285653
0.00123634
0.00152961
0.00574622
0.00927792
0.0177015
0.0332544
0.054154
0.0790228
0.102792
0.115777
0.112092
0.0913957
0.0619171
0.0356165
0.0203798
0.0146275
0.0151567
0.0174578
0.0218371
0.0335933
0.0582452
0.0948921
0.141195
0.194679
0.263423
0.0106814
0.0162131
0.0288786
0.051862
0.095496
0.167314
0.243475
0.308522
0.018188
0.0292546
0.0552637
0.115111
0.203328
0.289637
0.320595
0.0185526
0.0353374
0.0697641
0.147279
0.24892
0.306565
0.0450565
0.0956372
0.189323
0.280281
0.0280415
0.0599773
0.131842
0.230164
0.261864
0.0366941
0.0847164
0.171196
0.229424
0.0494948
0.116665
0.185643
0.029368
0.073189
0.139439
0.0441534
0.0977414
0.0293604
0.0644856
0.0437995
0.0315554
0.0271879
0.0414392
0.0637743
0.0899275
0.116623
0.140044
0.157167
0.168405
0.172677
0.169805
0.16234
0.152045
0.139325
0.128924
0.13326
0.000382972
0.000280809
0.000339862
0.000760638
0.00158146
0.0029823
0.00501324
0.00754729
0.0102493
0.0126989
0.0145469
0.0156994
0.0163905
0.0168435
0.0178907
0.0213869
0.0306422
0.0495868
0.086921
0.123728
1.71759e-05
7.02849e-07
1.27328e-06
5.01056e-06
1.2187e-05
2.47707e-05
4.7016e-05
8.65337e-05
0.000155463
0.000256879
0.000401882
0.000606144
0.00120821
0.0032451
0.0078355
0.0152691
0.0228175
0.0271315
0.0304047
0.0441418
0.096416
0.172621
3.48733e-06
1.47899e-06
4.21588e-07
1.2905e-06
3.03442e-06
5.50784e-06
1.0554e-05
3.38874e-05
0.000216794
0.0011347
0.00375604
0.0101013
0.0236601
0.0455603
0.0640464
0.0719471
0.0750354
0.0735511
0.0750951
0.0717574
0.0655069
0.0949745
0.178346
1.13657e-05
2.73362e-07
4.06429e-07
2.03475e-06
5.31755e-06
1.31574e-05
3.61297e-05
0.000117767
0.00043985
0.00186226
0.00843111
0.0298251
0.058674
0.0790764
0.0819602
0.0746257
0.0679321
0.064339
0.0700201
0.0804044
0.0910594
0.0959574
0.120265
0.206885
9.5265e-05
2.57823e-05
5.31124e-05
0.000163661
0.000425472
0.000991159
0.00225721
0.00534925
0.0160206
0.040405
0.0712836
0.0888177
0.0862437
0.0650819
0.0424432
0.0289849
0.0223931
0.0209746
0.0250261
0.0372862
0.0586317
0.0849309
0.115568
0.162664
0.255164
0.0015298
0.00166353
0.00897425
0.0192163
0.0342728
0.0537802
0.0760096
0.0968338
0.110017
0.110606
0.0920152
0.0636775
0.0364676
0.017728
0.00805496
0.00438037
0.00370112
0.00337484
0.00418514
0.00727859
0.0160364
0.0404401
0.083028
0.140503
0.216469
0.297876
0.000950137
0.0019601
0.00331009
0.00913341
0.0336677
0.0945138
0.179992
0.270323
0.00230054
0.00308569
0.00841392
0.0409029
0.122341
0.232992
0.303516
0.00389533
0.00424867
0.0141935
0.066221
0.176052
0.281717
0.00610567
0.00770828
0.0283172
0.110901
0.237659
0.283847
0.00827201
0.013589
0.0623214
0.181612
0.261198
0.0106299
0.0370455
0.125084
0.226237
0.00855107
0.021695
0.08009
0.181952
0.206716
0.0142066
0.0514182
0.137309
0.18065
0.010335
0.0337743
0.0998442
0.149291
0.0220001
0.0701136
0.117484
0.0151149
0.0481438
0.090578
0.0104205
0.0325243
0.0667139
0.00759658
0.0222958
0.0458653
0.0157784
0.0327383
0.0124709
0.0225816
0.00991588
0.000815643
0.000831152
0.00127388
0.00293627
0.00559504
0.00947655
0.0147942
0.0217763
0.0306805
0.040396
0.0474942
0.0502841
0.0500495
0.0487845
0.0483337
0.0500639
0.0571951
0.0722753
0.106017
0.133253
3.81514e-05
3.1432e-06
5.53498e-06
1.91175e-05
4.83239e-05
0.00010286
0.000199657
0.000356109
0.000574871
0.000857734
0.00123295
0.00171963
0.00307687
0.00683647
0.0147559
0.0221935
0.0291847
0.0353529
0.0392212
0.0530644
0.0962275
0.175973
7.53807e-06
1.48276e-07
1.45226e-07
1.15161e-06
2.76005e-06
4.63931e-06
6.50087e-06
9.52145e-06
5.09001e-05
0.000300171
0.0016021
0.00726271
0.0214425
0.0432729
0.0640004
0.0763609
0.080658
0.081469
0.0793366
0.0743706
0.0707235
0.093942
0.172654
1.53907e-05
5.58803e-07
1.20617e-06
5.12951e-06
1.54956e-05
4.02858e-05
0.000109213
0.000334554
0.00124554
0.00584732
0.0227419
0.0494477
0.0765823
0.0909946
0.0886455
0.0778662
0.068204
0.0642474
0.0665557
0.0740012
0.0836697
0.0902555
0.114762
0.199413
0.000167423
7.41644e-05
0.000156895
0.00044405
0.00111036
0.00247882
0.00534481
0.0129691
0.0329471
0.0615559
0.0866657
0.0951648
0.0862055
0.063163
0.0432231
0.029387
0.0212403
0.0176176
0.0186347
0.0268416
0.0408049
0.0654197
0.09718
0.143148
0.236989
0.0023429
0.0026822
0.0198552
0.0362876
0.0567634
0.0794968
0.100532
0.112891
0.114946
0.101639
0.0765757
0.0491296
0.0275054
0.0142078
0.00736506
0.00415575
0.00241375
0.00191929
0.00165258
0.00242629
0.0054928
0.0199816
0.0527554
0.106588
0.185633
0.281252
0.000103229
0.00016813
0.000389708
0.00123341
0.0101183
0.0512709
0.134092
0.23596
0.305174
0.000120425
0.000194075
0.000387627
0.00862453
0.0680852
0.18164
0.28301
0.000345588
0.000380784
0.000590306
0.0186998
0.11357
0.242179
0.291398
0.000922765
0.000532588
0.00178904
0.0504262
0.183352
0.271503
0.00112713
0.00061784
0.0135346
0.116781
0.236849
0.00167817
0.000929073
0.00375595
0.0638472
0.190899
0.235377
0.0016795
0.00150346
0.0290404
0.142261
0.211243
0.00197864
0.00139203
0.0129058
0.0985544
0.184461
0.00204779
0.00810974
0.0684835
0.152852
0.00209357
0.00543997
0.0468013
0.122576
0.00181047
0.0050314
0.0348567
0.0963966
0.00455048
0.0254963
0.0741915
0.00423516
0.0195989
0.0562363
0.00361104
0.0158839
0.0422445
0.0029329
0.0130171
0.0310041
0.00250716
0.0106719
0.0225855
0.00228474
0.00850822
0.0153492
0.00220604
0.0066592
0.0113973
0.0022725
0.00488744
0.00205075
0.0038625
0.00155334
0.00239851
0.0034773
0.00773912
0.0146524
0.0263712
0.0440797
0.0643372
0.0851339
0.103636
0.116087
0.121783
0.123297
0.123881
0.12325
0.119352
0.118792
0.130523
0.154349
0.173505
0.000163874
2.27069e-05
3.58009e-05
0.000113229
0.00029428
0.000620863
0.00119616
0.00218802
0.00389548
0.00660022
0.0110668
0.0173085
0.0241893
0.0322769
0.0400737
0.0448306
0.0491506
0.0532529
0.0608354
0.0823656
0.13725
0.192742
1.95902e-05
2.43326e-07
9.12196e-07
3.52852e-06
8.46035e-06
1.8504e-05
4.51644e-05
0.000134291
0.000544255
0.00257607
0.010918
0.0266485
0.0485892
0.0722727
0.0906656
0.0995615
0.101348
0.0994892
0.0933147
0.0851895
0.0848841
0.114078
0.187759
3.33666e-05
2.61531e-06
6.23822e-06
2.26648e-05
6.94463e-05
0.000179554
0.000471498
0.00147852
0.00683312
0.0237467
0.0512942
0.081456
0.103847
0.112531
0.108696
0.0983834
0.0905886
0.0851384
0.0843305
0.0875159
0.0933899
0.0969442
0.124937
0.20817
0.000285018
7.76415e-05
0.000507577
0.00130067
0.0031544
0.00659351
0.0145758
0.0329815
0.0603462
0.0887657
0.105866
0.106698
0.0944692
0.0761818
0.0604935
0.047295
0.0375301
0.0302023
0.0293455
0.0350335
0.0483526
0.0695593
0.0964623
0.144214
0.235888
0.00301759
0.00743085
0.0249925
0.0424864
0.0650203
0.0891789
0.110538
0.12239
0.121308
0.104036
0.0774301
0.0515734
0.0326397
0.0214152
0.016106
0.0135523
0.00869989
0.00612223
0.00359242
0.00354741
0.00656688
0.0179312
0.0467246
0.0965425
0.174157
0.269965
0.000717993
0.000166416
0.000209947
0.000783679
0.0060828
0.0367799
0.115271
0.21897
0.295541
-5.47236e-05
-7.77704e-05
-2.39339e-07
0.00337486
0.0444314
0.152776
0.267715
-4.24061e-05
-9.62725e-05
-1.46666e-05
0.00541281
0.0779094
0.213104
0.282564
-2.17675e-06
-5.21884e-05
0.000162711
0.0210733
0.140775
0.259591
7.94402e-05
-4.63533e-06
0.00188381
0.0695105
0.20608
0.260827
0.000142904
8.982e-05
0.000213019
0.0246799
0.149335
0.233749
0.000291759
7.92826e-05
0.00614444
0.0968737
0.20518
0.000400653
0.000114743
0.000958654
0.0567618
0.169026
0.000267767
0.000523241
0.032298
0.135426
0.000469515
0.000398876
0.0180982
0.103962
0.138674
0.000510564
0.000398962
0.0126366
0.0799305
0.116156
0.000497672
0.000452741
0.00890766
0.0623916
0.0940096
0.000569708
0.00708666
0.049289
0.0750829
0.000657956
0.00668355
0.0408942
0.0593014
0.000830917
0.00729723
0.0333806
0.0456465
0.000996714
0.00777034
0.0268726
0.0011478
0.00820946
0.0206503
0.00142405
0.00785902
0.0155795
0.000273789
0.00174877
0.00691922
0.0112929
0.000338864
0.00196841
0.00551804
0.000512611
0.0019586
0.00413251
0.000613205
0.00167921
0.00296521
0.000665516
0.00129064
0.000611173
0.00361338
0.00842179
0.0206913
0.0383749
0.0613251
0.0876963
0.114959
0.138589
0.158798
0.17674
0.192188
0.203378
0.209732
0.214078
0.215493
0.208748
0.204395
0.202151
0.199181
0.000484114
0.000200014
0.000406925
0.00111464
0.00271113
0.00545961
0.0101302
0.0192678
0.0359602
0.0575104
0.0788633
0.0949149
0.105668
0.114235
0.119284
0.115264
0.110243
0.112492
0.12162
0.149405
0.191478
0.216358
8.37889e-05
6.3862e-06
1.59216e-05
6.29123e-05
0.000199327
0.000499984
0.00122138
0.00331221
0.0112526
0.0280761
0.0528591
0.0801032
0.10485
0.124868
0.137431
0.140355
0.138274
0.133485
0.123939
0.116581
0.125198
0.160566
0.229837
0.000108072
9.42142e-06
6.43176e-05
0.000206983
0.000620767
0.00159531
0.00464582
0.0147547
0.0354922
0.0659776
0.0970037
0.119371
0.131553
0.135682
0.135058
0.131369
0.128495
0.124786
0.124217
0.122059
0.122836
0.124951
0.158458
0.234271
0.000847695
0.000449081
0.00309955
0.00681652
0.0146694
0.0297432
0.0511208
0.0769563
0.100474
0.11111
0.113463
0.10708
0.0969879
0.0897205
0.0844263
0.0779251
0.0688733
0.0626547
0.0618764
0.0661519
0.0790539
0.0975871
0.119432
0.167019
0.252988
0.00552137
0.0157605
0.0291149
0.0220727
0.0170776
0.015895
0.0204045
0.0343173
0.063662
0.112839
0.190702
0.279968
0.0024766
0.00144499
0.00234
0.011081
0.0468512
0.12308
0.225763
0.297932
0.000660743
-4.0867e-05
8.96335e-05
0.00408622
0.0477275
0.151651
0.267436
-1.24708e-05
-0.000139794
-0.000106432
0.00436171
0.0714573
0.203863
0.280356
-6.92735e-05
-0.000133892
-4.81992e-05
0.0147587
0.124899
0.252584
-5.23952e-05
-0.000107331
0.00057021
0.0499666
0.187767
0.255065
-9.25235e-06
-4.36194e-05
-1.13947e-05
0.0115022
0.124286
0.229605
1.20514e-05
-2.42475e-05
0.0019439
0.0695893
0.191766
3.03102e-05
-3.24038e-06
0.000156933
0.0341229
0.151687
3.50737e-05
5.1516e-05
0.0139555
0.113002
0.16165
8.73457e-05
3.62524e-05
0.00599209
0.0805249
0.137534
0.00011695
3.27736e-05
0.00351273
0.0579941
0.115976
0.000131567
3.403e-05
0.00231618
0.0428723
0.0961836
0.000131212
4.116e-05
0.00183433
0.0322623
0.0777342
0.000107748
4.8687e-05
0.00169199
0.0286983
0.0617109
0.000110225
6.38703e-05
0.00202208
0.0262176
0.048696
8.08495e-05
9.47888e-05
0.00252878
0.023696
0.0379757
2.68672e-05
0.000143278
0.00371299
0.0209137
0.0289735
2.29125e-05
0.000269251
0.00510503
0.0173096
3.93491e-05
0.000594775
0.00612238
0.0135773
8.27999e-05
0.00115936
0.00629119
0.0101949
0.000215088
0.00187592
0.00551966
0.00763659
4.52684e-05
0.000460208
0.00221683
0.00414255
0.000111191
0.000711504
0.00202447
0.00295482
4.11616e-05
0.00021927
0.000809492
0.00154934
8.38865e-05
0.000312398
0.000710657
0.000133294
0.00030613
0.000147314
0.248247
0.246907
0.00170472
0.00238246
0.00462972
0.0101427
0.0218203
0.0393041
0.0621683
0.0900599
0.120786
0.150525
0.174393
0.190636
0.202687
0.215053
0.224991
0.22314
0.219942
0.217079
0.221798
0.2391
0.248144
0.000498556
0.000154602
0.000936591
0.00260566
0.00615441
0.0132636
0.0261422
0.0461579
0.0746578
0.108247
0.139546
0.163025
0.179895
0.193857
0.203752
0.204457
0.201925
0.199539
0.192178
0.189101
0.204093
0.233983
0.2701
0.000617432
0.000251706
0.00192697
0.00492141
0.0125653
0.0250027
0.0436223
0.0687933
0.0970286
0.121004
0.136494
0.145443
0.152316
0.160094
0.16747
0.170492
0.173606
0.178054
0.181788
0.180313
0.180671
0.187142
0.219274
0.279064
0.00193073
0.0031401
0.0216266
0.0377225
0.0595554
0.082643
0.10209
0.111928
0.111486
0.101872
0.0900857
0.0851935
0.0880316
0.0957527
0.104286
0.108388
0.109464
0.10955
0.112187
0.121281
0.136169
0.154606
0.172701
0.219719
0.28651
0.0524234
0.0462394
0.0483938
0.059344
0.0815903
0.111551
0.161293
0.232303
0.306077
0.0182223
0.0142986
0.0190799
0.0392335
0.0842144
0.159627
0.250036
0.304841
0.00506488
0.00208784
0.00283795
0.0174848
0.0752579
0.1763
0.277
0.00160169
8.46079e-05
6.22204e-05
0.011992
0.0896269
0.216558
0.284564
0.000300939
-0.00014033
1.90061e-05
0.0221043
0.133197
0.254873
-2.67087e-05
-0.000152785
0.000861487
0.0539646
0.187554
0.253548
1.29982e-07
-9.1984e-05
-8.82496e-05
0.0113621
0.121021
0.226755
-2.89262e-05
-8.34866e-05
0.0011555
0.0643343
0.186601
-1.04467e-05
-4.18155e-05
6.01886e-05
0.0289337
0.14474
-1.19093e-05
-1.35387e-05
0.00899731
0.102011
0.160505
3.41164e-06
-1.00944e-05
0.00361779
0.0697519
0.137375
1.25629e-05
-2.70956e-06
0.00139037
0.044638
0.116323
1.60597e-05
5.63802e-07
0.000844699
0.0279322
0.0945104
1.80352e-05
3.57349e-06
0.000602224
0.0188968
0.0716958
1.76816e-05
5.41403e-06
0.000553436
0.0163781
0.0577853
1.40797e-05
6.77949e-06
0.00064753
0.0162894
0.0480068
7.66183e-06
9.33484e-06
0.000817105
0.0164432
0.0384637
1.48433e-06
1.76676e-05
0.00118046
0.016561
0.0302027
-2.60755e-06
4.00778e-05
0.00191773
0.0154397
0.0229433
-6.56027e-06
0.000108126
0.00326439
0.013406
3.94155e-06
-3.57097e-06
0.000274457
0.00477994
0.0108892
-9.1531e-06
1.47494e-05
0.000802015
0.00537279
0.00815362
-7.71428e-06
9.65189e-05
0.00166628
0.00474237
-3.12589e-06
1.16848e-05
0.000406678
0.00219359
0.00354179
2.27e-06
0.000105116
0.000828106
0.00195735
2.60769e-06
4.36749e-05
0.000301476
0.000953756
0.00138944
2.01824e-05
0.000121334
0.000423282
0.000742152
1.15905e-05
5.4669e-05
0.000186103
0.000359778
9.39576e-06
2.67114e-05
8.34015e-05
0.000170969
1.63059e-05
4.01735e-05
7.76127e-05
0.00567651
0.0170692
0.0325281
0.0521159
0.0772966
0.103376
0.126836
0.14476
0.156549
0.165719
0.18021
0.203108
0.228094
0.25165
0.27368
0.288075
0.304299
0.308652
0.306849
0.310953
0.00300813
0.005952
0.0276256
0.0473033
0.0710776
0.0965757
0.120981
0.138013
0.153574
0.165631
0.174694
0.189218
0.208971
0.230442
0.252541
0.269483
0.276955
0.28755
0.291335
0.291499
0.303251
0.310988
0.00492526
0.0129306
0.0334885
0.0531557
0.0767443
0.100287
0.119367
0.129035
0.132699
0.130999
0.132837
0.143937
0.161429
0.18047
0.200054
0.218914
0.229726
0.241741
0.251568
0.258965
0.268807
0.279897
0.297503
0.314957
0.159522
0.163862
0.171347
0.186228
0.211916
0.235991
0.255559
0.288527
0.319682
0.0895876
0.093725
0.116602
0.154433
0.192738
0.238425
0.285747
0.321133
0.0416125
0.0623785
0.101047
0.156565
0.225994
0.293724
0.0166683
0.029779
0.0655977
0.136812
0.230016
0.297884
0.00557964
0.0106501
0.0494556
0.141384
0.248432
0.290281
0.00265132
0.000849455
0.00363466
0.052924
0.167707
0.26285
0.000855954
-6.80653e-05
0.00590299
0.0833907
0.207286
0.252423
0.000569863
-4.12325e-06
-2.5591e-05
0.0236166
0.139899
0.227235
0.000106681
-0.000134356
0.0031301
0.0779323
0.191127
6.69919e-05
-7.49942e-05
0.000115232
0.0349316
0.148055
-2.21877e-05
-6.13702e-05
0.00989053
0.104916
0.157811
-1.05044e-05
-6.37526e-05
0.00423281
0.0706436
0.135615
-4.79534e-06
-3.17601e-05
0.00121447
0.0426178
0.115189
-7.02278e-07
-1.59913e-05
0.000558979
0.0226674
0.0873195
1.04628e-06
-8.65383e-06
0.000346446
0.0142407
0.0662963
2.30607e-06
-5.05521e-06
0.000259267
0.0110186
0.0530114
3.53997e-06
-2.30804e-06
0.000284195
0.0103894
0.0437208
4.03579e-06
-1.56428e-07
0.000351047
0.011231
0.0375879
3.07787e-06
2.7628e-06
0.000528778
0.0128101
0.0303276
-9.44038e-07
8.88041e-06
0.000823194
0.01277
0.0234484
-4.73941e-06
2.70058e-05
0.00151299
0.0119654
0.0184253
-3.60574e-07
-6.8853e-06
8.0776e-05
0.00288362
0.0106049
-4.72769e-06
-5.32268e-06
0.000243363
0.00405868
0.00850114
7.79741e-07
-9.8457e-06
1.02027e-05
0.000735676
0.00440818
0.00625765
-5.52762e-06
-9.86612e-06
9.59168e-05
0.0016094
0.00379268
-9.36447e-07
-1.0071e-05
2.97083e-06
0.000446813
0.00196902
0.00276456
-5.53213e-06
-6.88523e-06
0.000116264
0.000842094
0.00161761
-1.93521e-06
-2.71911e-06
4.84487e-05
0.000361899
0.000897041
0.00114094
-2.89973e-07
2.31202e-06
3.22262e-05
0.000174669
0.000448895
0.000626456
8.33988e-07
4.51125e-06
2.38038e-05
9.25753e-05
0.000221438
0.000317055
1.43727e-06
4.49782e-06
1.70442e-05
5.10627e-05
0.000107792
0.000148037
1.61078e-06
3.91574e-06
1.09599e-05
2.6272e-05
5.05872e-05
6.07599e-06
1.2806e-05
0.329377
0.344279
0.351138
0.353071
0.275662
0.307205
0.326417
0.342624
0.353373
0.353711
0.223425
0.245596
0.279288
0.313659
0.336669
0.350686
0.147889
0.172894
0.221152
0.275101
0.317482
0.338051
0.0857162
0.113349
0.172138
0.240125
0.297293
0.32546
0.0484302
0.0758406
0.136571
0.217137
0.288094
0.31447
0.0252319
0.0503583
0.118664
0.212062
0.286445
0.013704
0.0391694
0.114593
0.222049
0.272795
0.00440859
0.00522301
0.0363307
0.137965
0.236837
0.0010501
0.00349866
0.0608089
0.177692
0.226177
0.00107622
-1.46847e-05
0.0144482
0.111803
0.199314
0.000617571
-4.18051e-05
0.00124918
0.0581711
0.161236
5.17824e-05
2.33403e-05
0.019953
0.120313
0.154004
9.29261e-05
-8.76034e-05
0.00664813
0.0813692
0.132711
5.76596e-05
-7.92241e-05
0.00195334
0.0503157
0.112929
1.2707e-05
-4.64734e-05
0.000787952
0.0272333
0.0910576
9.66121e-07
-2.59664e-05
0.000397634
0.0163338
0.0672274
7.7299e-07
-1.60988e-05
0.000269712
0.0114716
0.0522598
6.96208e-07
-1.09392e-05
0.000235725
0.00962401
0.0416357
6.79271e-07
-7.33557e-06
0.000265981
0.00979411
0.034881
6.7769e-07
-3.21527e-06
0.000411632
0.0111678
0.0298706
2.13893e-07
1.43341e-06
0.000628806
0.0115433
0.0234839
4.90868e-07
-1.09327e-06
1.14739e-05
0.000941848
0.0106105
0.0178951
6.09424e-07
-2.94496e-06
3.52607e-05
0.00192776
0.00988739
1.67079e-07
-3.75022e-06
0.000107222
0.00292727
0.00829271
2.8237e-07
-2.61134e-06
-4.9451e-07
0.000328771
0.00365119
0.00644351
-1.17414e-06
-6.81868e-06
2.43998e-05
0.000977906
0.00361566
-1.14201e-06
-4.78403e-06
-6.46696e-06
0.000164442
0.00168051
0.00281596
-8.02485e-07
-3.45249e-06
-8.45257e-06
1.56725e-05
0.000549736
0.00166829
-8.11698e-07
-2.88617e-06
-6.3265e-06
-2.26623e-06
0.000192674
0.000822793
0.00119436
-6.87342e-07
-2.07613e-06
-4.27334e-06
-1.37786e-06
8.92992e-05
0.000409578
0.000693065
-4.1474e-07
-1.08184e-06
-1.89765e-06
4.40253e-06
5.59059e-05
0.000208731
0.000380305
6.9843e-08
6.16641e-08
2.03428e-07
1.49015e-06
9.60342e-06
4.19988e-05
0.000115331
0.000193422
1.51251e-07
2.34438e-07
4.91378e-07
1.35238e-06
3.82219e-06
1.11515e-05
2.95019e-05
6.1797e-05
9.21472e-05
2.98456e-07
6.12511e-07
1.43787e-06
3.45488e-06
7.8235e-06
1.66519e-05
2.75704e-05
4.05176e-05
1.79897e-06
3.6184e-06
6.53077e-06
0.356783
0.299075
0.334973
0.357819
0.211555
0.259053
0.31026
0.346029
0.35169
0.160921
0.210102
0.284683
0.33028
0.335775
0.115843
0.184538
0.268304
0.315391
0.0555258
0.0914203
0.17433
0.25967
0.296403
0.0394736
0.0856896
0.175738
0.257589
0.267239
0.0318189
0.0913572
0.191652
0.246319
0.0103765
0.034588
0.114817
0.207289
0.213751
0.00363231
0.0073829
0.0510784
0.152911
0.1981
0.00130419
0.0131624
0.0970801
0.172719
0.000794195
0.0016237
0.0463081
0.138099
0.000529454
2.27773e-05
0.0192264
0.100299
0.131655
0.000283168
-8.0521e-05
0.00630337
0.0672789
0.110402
0.000150794
-7.24705e-05
0.00232003
0.0420523
0.091565
6.21837e-05
-5.48719e-05
0.000935328
0.0265174
0.0731124
1.54569e-05
-3.75878e-05
0.000517079
0.0171114
0.0557295
4.17504e-06
-2.65287e-05
0.000384854
0.012969
0.0441188
1.69085e-06
-1.86409e-05
0.000385048
0.0119355
0.0361776
3.09094e-07
-1.18935e-05
0.000471383
0.0119744
0.0295593
-5.53673e-07
-5.21031e-06
0.00066067
0.0116768
0.0231548
1.35081e-07
-1.57799e-06
4.88188e-06
0.000895064
0.0103088
0.017754
2.60469e-07
-3.28089e-06
2.35451e-05
0.00184806
0.00964874
1.36395e-07
-4.70569e-06
7.59898e-05
0.00263689
0.00817464
2.10073e-07
-7.67893e-07
-2.6388e-06
0.00022652
0.00334848
0.00638015
1.53912e-07
-3.89975e-06
1.08154e-05
0.00068483
0.00343487
8.24464e-08
-6.83769e-07
-6.19967e-06
7.52842e-05
0.00136041
0.00285614
-2.17032e-07
-3.0375e-07
-5.35802e-06
4.99403e-07
0.000361856
0.00153723
0.00216402
-4.44772e-07
-6.80179e-07
-3.15189e-06
-6.97299e-06
9.418e-05
0.000701957
0.00120892
-1.69336e-07
-5.37058e-07
-9.41645e-07
-2.43712e-06
-6.2828e-06
2.75276e-05
0.000320647
0.000686659
-7.56372e-08
-2.17928e-07
-5.66464e-07
-1.14602e-06
-2.05782e-06
-3.67273e-06
1.75601e-05
0.00015625
0.000376566
0.000478183
1.41333e-08
1.4449e-08
1.0651e-08
-1.27739e-08
-5.64891e-08
-2.0328e-07
-4.92399e-07
-9.2154e-07
-1.53881e-06
-3.79041e-08
1.93021e-05
9.07274e-05
0.000199562
0.000250309
3.15133e-08
4.65715e-08
6.33815e-08
7.25848e-08
7.10938e-08
5.93621e-08
1.82507e-07
9.14166e-07
4.89326e-06
2.08331e-05
5.70722e-05
0.000103092
0.000125055
9.15385e-08
1.90286e-07
3.95372e-07
7.97486e-07
1.60319e-06
3.34112e-06
7.52634e-06
1.6884e-05
3.24285e-05
4.90139e-05
2.36057e-07
4.84182e-07
1.10239e-06
2.26651e-06
4.52478e-06
7.93349e-06
1.3464e-05
0.264711
0.295566
0.185843
0.252683
0.28745
0.116851
0.182602
0.254561
0.273567
0.107946
0.190394
0.24523
0.055229
0.120688
0.203372
0.230234
0.025216
0.0637332
0.143874
0.205264
0.0282274
0.0873218
0.166591
0.175881
0.0109191
0.0434191
0.12254
0.163857
0.00395949
0.0172
0.0781333
0.140169
0.00183713
0.00499492
0.0449796
0.111756
0.000797785
0.00142037
0.0227195
0.0843332
0.102412
0.000383996
0.000314188
0.0096262
0.0601661
0.0869787
0.000181109
-5.59803e-06
0.00365877
0.0418327
0.0717745
0.000111712
-3.68837e-05
0.00179383
0.0294378
0.0581017
3.01352e-05
-2.93687e-05
0.00115525
0.0216386
0.0465847
3.48542e-06
-2.41188e-05
0.00095076
0.0177187
0.0369916
-1.29314e-06
-1.90408e-05
0.000840688
0.0150516
0.0292649
-6.65662e-06
-1.01859e-05
0.000982036
0.0132788
0.0226444
5.39767e-07
-7.04457e-06
4.04304e-06
0.00135437
0.0113309
0.016968
-2.95116e-08
-8.39646e-06
2.95233e-05
0.00212111
0.00990876
-1.91912e-07
-8.63686e-06
8.77885e-05
0.00291516
0.00812153
1.72304e-07
-1.10579e-06
-5.17962e-06
0.000244086
0.00346898
0.00629919
3.54999e-08
1.09788e-07
-4.13804e-06
7.45022e-06
0.000690128
0.00340666
1.01091e-07
-2.83519e-07
-7.2011e-06
5.89554e-05
0.00127183
0.00281801
5.60685e-08
6.69197e-08
-4.17725e-06
-2.176e-06
0.00029938
0.00146521
0.00205631
-5.50155e-10
9.94787e-08
-1.31542e-06
-7.35237e-06
6.73224e-05
0.000640794
0.00120521
-6.30907e-08
-5.52586e-08