/*--------------------------------*- C++ -*----------------------------------*\
| =========                 |                                                 |
| \\      /  F ield         | OpenFOAM: The Open Source CFD Toolbox           |
|  \\    /   O peration     | Version:  v1906                                 |
|   \\  /    A nd           | Web:      www.OpenFOAM.com                      |
|    \\/     M anipulation  |                                                 |
\*---------------------------------------------------------------------------*/
FoamFile
{
    version     2.0;
    format      ascii;
    class       volScalarField;
    location    "0.5";
    object      p;
}
// * * * * * * * * * * * * * * * * * * * * * * * * * * * * * * * * * * * * * //

dimensions      [0 2 -2 0 0 0 0];


internalField   nonuniform List<scalar> 
146744
(
-0.347553
-0.344757
-0.341452
-0.338384
-0.335213
-0.331986
-0.328727
-0.32546
-0.322199
-0.318949
-0.315711
-0.312485
-0.309278
-0.306107
-0.303018
-0.300031
-0.297304
-0.347645
-0.344732
-0.34145
-0.338379
-0.33521
-0.331984
-0.328727
-0.32546
-0.322199
-0.318949
-0.31571
-0.31248
-0.309266
-0.306081
-0.302958
-0.300006
-0.296899
-0.293915
-0.347621
-0.344743
-0.341471
-0.338381
-0.335211
-0.331985
-0.328727
-0.32546
-0.322198
-0.318948
-0.315707
-0.312474
-0.309252
-0.306051
-0.302893
-0.299852
-0.296719
-0.293562
-0.34752
-0.344762
-0.341459
-0.338384
-0.335215
-0.331987
-0.328727
-0.325459
-0.322197
-0.318946
-0.315703
-0.312467
-0.309238
-0.306022
-0.302875
-0.347523
-0.344765
-0.34148
-0.338386
-0.335213
-0.331986
-0.328727
-0.32546
-0.322199
-0.318949
-0.315712
-0.312486
-0.30928
-0.306112
-0.303021
-0.300167
-0.347719
-0.344716
-0.341438
-0.338369
-0.335206
-0.331982
-0.328726
-0.32546
-0.322199
-0.318949
-0.31571
-0.312483
-0.309273
-0.306095
-0.302988
-0.300047
-0.297025
-0.294083
-0.291417
-0.347865
-0.344672
-0.341408
-0.338353
-0.335199
-0.331978
-0.328724
-0.325459
-0.322198
-0.318948
-0.315708
-0.312477
-0.309259
-0.306065
-0.302923
-0.299912
-0.296871
-0.293777
-0.290765
-0.287892
-0.347835
-0.344674
-0.34143
-0.338359
-0.335202
-0.33198
-0.328725
-0.325459
-0.322198
-0.318947
-0.315705
-0.31247
-0.309244
-0.306033
-0.302858
-0.299802
-0.296634
-0.293412
-0.290337
-0.28716
-0.284399
-0.347644
-0.344737
-0.341428
-0.33838
-0.335211
-0.331985
-0.328727
-0.325459
-0.322197
-0.318945
-0.315702
-0.312463
-0.30923
-0.306004
-0.302798
-0.299702
-0.296324
-0.292967
-0.28978
-0.286576
-0.283484
-0.347619
-0.344748
-0.341411
-0.338381
-0.335211
-0.331985
-0.328727
-0.32546
-0.322199
-0.318949
-0.315711
-0.312484
-0.309276
-0.306102
-0.303003
-0.300076
-0.297138
-0.294355
-0.347916
-0.344668
-0.341402
-0.338348
-0.335196
-0.331976
-0.328724
-0.325458
-0.322198
-0.318948
-0.315708
-0.312479
-0.309265
-0.306078
-0.30295
-0.29995
-0.296975
-0.294005
-0.291118
-0.288388
-0.347653
-0.344264
-0.341381
-0.338326
-0.335185
-0.331969
-0.32872
-0.325456
-0.322196
-0.318945
-0.315704
-0.312471
-0.309248
-0.306045
-0.302884
-0.299817
-0.296738
-0.293654
-0.290667
-0.287773
-0.284919
-0.348033
-0.344294
-0.341389
-0.338336
-0.335189
-0.331972
-0.328722
-0.325457
-0.322196
-0.318945
-0.315702
-0.312465
-0.309233
-0.306012
-0.302814
-0.299701
-0.296498
-0.293284
-0.290169
-0.287135
-0.284204
-0.281372
-0.347819
-0.344695
-0.341426
-0.338366
-0.335204
-0.331981
-0.328725
-0.325458
-0.322196
-0.318944
-0.3157
-0.312459
-0.30922
-0.305984
-0.302756
-0.299569
-0.296232
-0.292895
-0.289598
-0.286413
-0.283326
-0.280412
-0.277836
-0.347553
-0.34476
-0.34145
-0.338384
-0.335214
-0.331986
-0.328727
-0.325459
-0.322196
-0.318943
-0.315697
-0.312453
-0.309207
-0.305955
-0.302699
-0.299595
-0.292274
-0.288903
-0.285708
-0.282378
-0.279428
-0.276578
-0.278199
-0.275384
-0.272811
-0.34773
-0.344725
-0.341435
-0.338372
-0.335205
-0.331982
-0.328726
-0.325459
-0.322198
-0.318948
-0.315709
-0.31248
-0.309268
-0.306087
-0.302968
-0.299983
-0.296971
-0.29415
-0.291466
-0.348067
-0.34428
-0.341384
-0.338328
-0.335185
-0.33197
-0.32872
-0.325457
-0.322196
-0.318946
-0.315705
-0.312474
-0.309254
-0.306058
-0.302906
-0.299867
-0.296847
-0.29387
-0.290991
-0.288159
-0.285647
-0.347831
-0.34424
-0.341368
-0.338297
-0.335168
-0.331957
-0.328711
-0.325449
-0.322189
-0.318938
-0.315695
-0.31246
-0.309232
-0.306017
-0.302833
-0.299728
-0.296609
-0.293529
-0.290515
-0.28761
-0.284823
-0.282119
-0.347763
-0.344252
-0.341374
-0.338315
-0.335177
-0.331965
-0.328717
-0.325454
-0.322194
-0.318942
-0.315697
-0.312458
-0.309221
-0.305989
-0.302769
-0.299602
-0.296371
-0.293147
-0.29001
-0.286966
-0.28404
-0.281279
-0.278656
-0.347977
-0.344668
-0.34141
-0.338349
-0.335196
-0.331976
-0.328723
-0.325457
-0.322195
-0.318942
-0.315697
-0.312454
-0.309209
-0.30596
-0.302705
-0.299459
-0.296099
-0.292718
-0.289434
-0.286239
-0.28319
-0.280315
-0.277617
-0.275113
-0.347614
-0.344748
-0.341453
-0.338384
-0.335213
-0.331986
-0.328727
-0.325459
-0.322196
-0.318942
-0.315695
-0.312448
-0.309197
-0.305933
-0.302644
-0.299322
-0.295805
-0.292295
-0.288814
-0.285414
-0.282234
-0.279234
-0.276465
-0.273889
-0.284287
-0.281237
-0.278062
-0.275157
-0.27256
-0.270222
-0.2765
-0.273751
-0.271095
-0.268583
-0.269382
-0.266976
-0.264988
-0.265299
-0.263221
-0.341444
-0.338385
-0.335214
-0.331986
-0.328727
-0.325459
-0.322198
-0.318948
-0.315708
-0.312479
-0.309265
-0.306082
-0.302966
-0.300134
-0.347818
-0.344708
-0.341416
-0.338361
-0.335201
-0.331978
-0.328724
-0.325458
-0.322197
-0.318947
-0.315706
-0.312476
-0.309259
-0.306068
-0.302929
-0.29991
-0.296972
-0.293962
-0.291248
-0.288725
-0.34776
-0.344258
-0.341376
-0.338311
-0.335176
-0.331964
-0.328717
-0.325454
-0.322194
-0.318943
-0.315701
-0.312466
-0.309242
-0.306034
-0.302862
-0.29977
-0.296734
-0.293749
-0.290845
-0.288049
-0.285246
-0.347959
-0.344225
-0.341361
-0.338279
-0.335156
-0.331952
-0.328708
-0.325448
-0.322188
-0.318937
-0.315693
-0.312454
-0.30922
-0.305993
-0.302784
-0.299635
-0.296484
-0.293415
-0.290372
-0.287454
-0.284654
-0.281957
-0.279612
-0.347878
-0.344234
-0.341364
-0.338301
-0.335167
-0.331959
-0.328713
-0.325451
-0.322191
-0.318939
-0.315693
-0.312451
-0.309209
-0.305966
-0.302726
-0.299499
-0.296243
-0.293011
-0.289864
-0.286803
-0.283883
-0.281123
-0.278498
-0.276163
-0.348103
-0.344313
-0.341393
-0.338337
-0.33519
-0.331972
-0.328721
-0.325455
-0.322194
-0.31894
-0.315693
-0.312448
-0.309197
-0.305936
-0.302655
-0.299351
-0.295955
-0.292578
-0.289273
-0.28607
-0.283022
-0.280146
-0.277461
-0.274945
-0.347684
-0.344736
-0.341394
-0.338382
-0.335211
-0.331985
-0.328726
-0.325459
-0.322196
-0.318941
-0.315693
-0.312444
-0.309187
-0.305911
-0.302598
-0.299202
-0.295705
-0.292199
-0.288581
-0.285214
-0.28205
-0.279071
-0.276291
-0.27374
-0.271429
-0.284432
-0.281002
-0.277829
-0.274988
-0.272395
-0.270038
-0.267861
-0.276437
-0.27352
-0.270906
-0.268533
-0.266348
-0.27199
-0.269229
-0.266892
-0.264748
-0.262872
-0.267315
-0.265062
-0.262988
-0.261185
-0.263076
-0.261114
-0.259264
-0.259025
-0.257304
-0.256846
-0.255283
-0.253161
-0.34146
-0.338384
-0.335212
-0.331985
-0.328726
-0.32546
-0.322198
-0.318947
-0.315706
-0.312475
-0.309257
-0.306065
-0.302927
-0.299924
-0.297202
-0.347857
-0.344702
-0.341414
-0.338351
-0.335194
-0.331975
-0.328722
-0.325457
-0.322196
-0.318945
-0.315703
-0.31247
-0.309247
-0.306045
-0.302884
-0.299816
-0.296887
-0.293958
-0.291051
-0.288516
-0.347806
-0.344247
-0.341371
-0.338291
-0.335168
-0.331961
-0.328715
-0.325452
-0.322191
-0.318939
-0.315696
-0.312458
-0.309228
-0.306008
-0.302813
-0.299681
-0.296622
-0.293641
-0.290724
-0.287896
-0.28516
-0.282741
-0.34801
-0.344215
-0.34136
-0.337594
-0.33436
-0.331148
-0.327903
-0.324642
-0.321385
-0.318136
-0.31489
-0.311646
-0.3084
-0.305152
-0.301908
-0.298687
-0.295484
-0.293235
-0.290244
-0.287308
-0.284512
-0.281854
-0.279361
-0.347928
-0.344224
-0.341366
-0.338317
-0.335176
-0.33197
-0.328727
-0.325465
-0.322204
-0.318951
-0.315704
-0.312459
-0.309211
-0.305956
-0.302692
-0.299416
-0.296124
-0.292867
-0.289711
-0.286652
-0.283729
-0.280973
-0.278372
-0.275962
-0.348162
-0.344306
-0.341391
-0.338326
-0.335183
-0.331968
-0.328718
-0.325453
-0.32219
-0.318936
-0.315688
-0.31244
-0.309184
-0.30591
-0.302606
-0.299243
-0.29582
-0.292432
-0.289111
-0.285912
-0.282858
-0.279988
-0.2773
-0.274828
-0.272547
-0.34772
-0.344728
-0.341449
-0.33838
-0.335207
-0.331982
-0.328725
-0.325458
-0.322195
-0.31894
-0.31569
-0.312439
-0.309177
-0.305889
-0.30254
-0.299097
-0.295537
-0.291915
-0.288395
-0.285045
-0.281873
-0.278897
-0.276129
-0.27358
-0.271247
-0.287563
-0.284184
-0.280716
-0.277639
-0.27481
-0.272227
-0.269873
-0.267716
-0.279363
-0.276288
-0.273335
-0.270727
-0.268358
-0.266242
-0.264331
-0.274493
-0.271708
-0.269047
-0.266703
-0.26459
-0.262655
-0.267217
-0.264888
-0.262828
-0.260992
-0.265179
-0.262906
-0.260926
-0.25915
-0.257591
-0.260652
-0.25888
-0.257204
-0.255735
-0.256658
-0.255132
-0.253722
-0.254273
-0.252935
-0.25167
-0.250653
-0.249509
-0.248112
-0.247298
-0.245036
-0.242737
-0.341505
-0.338384
-0.335213
-0.331985
-0.328726
-0.325459
-0.322198
-0.318946
-0.315704
-0.312471
-0.309248
-0.306047
-0.302891
-0.299844
-0.297056
-0.34785
-0.344703
-0.34142
-0.338354
-0.335196
-0.331976
-0.328722
-0.325457
-0.322195
-0.318944
-0.315701
-0.312465
-0.309237
-0.306024
-0.302844
-0.299736
-0.296784
-0.293854
-0.290919
-0.288351
-0.347789
-0.34425
-0.341374
-0.338285
-0.335168
-0.33196
-0.328713
-0.32545
-0.322189
-0.318936
-0.315691
-0.312451
-0.309215
-0.305984
-0.30277
-0.2996
-0.296515
-0.293536
-0.290592
-0.287768
-0.285017
-0.282583
-0.347993
-0.344218
-0.341361
-0.337582
-0.334377
-0.331151
-0.327904
-0.324643
-0.321385
-0.318135
-0.314888
-0.311639
-0.308385
-0.305124
-0.301855
-0.298593
-0.295379
-0.293109
-0.290111
-0.287169
-0.284367
-0.281702
-0.279208
-0.347913
-0.344227
-0.341367
-0.338308
-0.335175
-0.33197
-0.328726
-0.325463
-0.322203
-0.318949
-0.3157
-0.312452
-0.309197
-0.305929
-0.302641
-0.299313
-0.296002
-0.292733
-0.289574
-0.286508
-0.283569
-0.280813
-0.278239
-0.275798
-0.348152
-0.344307
-0.341393
-0.338328
-0.335184
-0.331968
-0.328717
-0.325451
-0.322189
-0.318934
-0.315685
-0.312433
-0.30917
-0.305884
-0.302553
-0.299137
-0.295682
-0.292282
-0.288959
-0.285751
-0.282696
-0.279823
-0.27715
-0.274675
-0.272476
-0.347717
-0.344728
-0.341398
-0.338381
-0.335209
-0.331984
-0.328725
-0.325458
-0.322195
-0.318939
-0.315688
-0.312434
-0.309164
-0.305862
-0.302492
-0.299058
-0.295376
-0.291762
-0.288204
-0.284886
-0.281693
-0.278722
-0.275972
-0.273429
-0.271129
-0.269004
-0.287417
-0.283984
-0.28052
-0.277472
-0.274634
-0.272062
-0.269714
-0.267592
-0.279311
-0.276034
-0.273151
-0.270547
-0.268195
-0.266076
-0.264218
-0.274376
-0.271482
-0.268867
-0.266526
-0.264433
-0.262575
-0.269588
-0.266998
-0.264711
-0.262659
-0.260833
-0.259233
-0.264859
-0.262721
-0.260747
-0.258992
-0.257419
-0.260582
-0.258694
-0.257038
-0.255582
-0.258317
-0.256503
-0.254961
-0.253596
-0.252463
-0.254146
-0.252771
-0.251539
-0.25043
-0.251615
-0.250473
-0.249392
-0.24843
-0.248072
-0.247184
-0.24635
-0.245572
-0.244863
-0.244206
-0.242944
-0.242501
-0.242009
-0.240496
-0.240118
-0.239739
-0.237671
-0.237577
-0.23527
-0.235448
-0.232829
-0.3478
-0.344711
-0.341419
-0.338365
-0.3352
-0.331979
-0.328724
-0.325458
-0.322196
-0.318943
-0.315699
-0.312461
-0.309228
-0.306006
-0.30281
-0.29967
-0.296689
-0.293748
-0.290808
-0.288222
-0.347719
-0.344269
-0.341377
-0.338309
-0.335173
-0.331962
-0.328712
-0.325449
-0.322187
-0.318934
-0.315688
-0.312446
-0.309204
-0.305964
-0.302731
-0.299521
-0.296428
-0.293418
-0.290475
-0.287629
-0.284954
-0.282389
-0.347904
-0.344232
-0.341367
-0.338326
-0.335189
-0.331978
-0.328732
-0.32547
-0.322209
-0.318955
-0.315707
-0.31246
-0.309208
-0.305948
-0.302674
-0.299389
-0.296177
-0.293009
-0.289982
-0.287026
-0.284218
-0.281574
-0.279031
-0.347818
-0.34424
-0.341372
-0.338316
-0.335173
-0.331963
-0.328716
-0.325453
-0.322191
-0.318937
-0.315687
-0.312436
-0.309176
-0.305896
-0.302582
-0.299208
-0.295874
-0.292603
-0.289423
-0.286358
-0.283429
-0.280663
-0.278084
-0.275638
-0.348078
-0.344328
-0.3414
-0.338342
-0.33519
-0.331972
-0.32872
-0.325454
-0.322191
-0.318935
-0.315685
-0.31243
-0.309162
-0.305863
-0.302507
-0.299028
-0.295553
-0.292132
-0.288814
-0.285588
-0.282542
-0.279657
-0.276996
-0.274529
-0.272247
-0.347666
-0.344738
-0.341446
-0.338384
-0.335212
-0.331985
-0.328726
-0.325458
-0.322194
-0.318938
-0.315687
-0.31243
-0.309156
-0.305845
-0.302454
-0.29883
-0.295314
-0.291586
-0.28804
-0.284718
-0.281525
-0.278549
-0.275812
-0.273278
-0.270964
-0.268926
-0.28729
-0.283777
-0.280348
-0.277287
-0.274463
-0.271897
-0.269559
-0.267458
-0.26555
-0.279073
-0.275838
-0.272962
-0.270374
-0.26803
-0.265916
-0.26401
-0.274194
-0.271282
-0.268691
-0.266351
-0.264271
-0.262422
-0.260726
-0.269322
-0.266826
-0.264535
-0.262492
-0.260674
-0.25912
-0.264758
-0.262548
-0.260574
-0.258841
-0.25732
-0.262542
-0.260391
-0.258518
-0.256876
-0.255411
-0.254205
-0.258058
-0.256331
-0.25479
-0.253444
-0.252267
-0.255644
-0.253991
-0.252593
-0.251384
-0.250323
-0.251456
-0.250297
-0.249228
-0.2483
-0.248936
-0.247897
-0.247006
-0.246199
-0.246301
-0.245421
-0.244695
-0.244049
-0.242872
-0.242344
-0.24186
-0.24025
-0.23995
-0.239662
-0.23766
-0.237549
-0.237407
-0.235016
-0.23513
-0.235144
-0.232413
-0.232684
-0.232944
-0.229801
-0.230373
-0.230699
-0.227347
-0.227943
-0.228618
-0.224977
-0.225708
-0.222622
-0.22359
-0.347703
-0.344729
-0.341438
-0.338377
-0.335206
-0.331982
-0.328725
-0.325458
-0.322196
-0.318943
-0.315698
-0.312457
-0.309219
-0.305986
-0.302768
-0.299584
-0.296587
-0.293542
-0.290744
-0.28817
-0.348029
-0.344656
-0.341395
-0.338336
-0.335187
-0.331971
-0.32872
-0.325455
-0.322193
-0.318939
-0.315692
-0.312447
-0.309201
-0.305951
-0.302697
-0.299439
-0.296335
-0.2933
-0.290346
-0.287511
-0.284728
-0.28234
-0.347736
-0.34425
-0.341375
-0.338302
-0.335168
-0.331955
-0.328706
-0.325442
-0.322181
-0.318927
-0.315678
-0.312428
-0.309172
-0.3059
-0.302606
-0.299273
-0.296045
-0.292924
-0.289842
-0.286887
-0.28408
-0.281426
-0.2789
-0.347685
-0.344261
-0.341379
-0.338325
-0.335179
-0.331965
-0.328715
-0.325451
-0.322188
-0.318933
-0.315683
-0.312429
-0.309163
-0.305872
-0.302533
-0.299101
-0.295759
-0.292484
-0.289294
-0.286209
-0.283265
-0.280507
-0.277938
-0.275499
-0.347938
-0.344664
-0.341416
-0.338358
-0.335197
-0.331977
-0.328722
-0.325455
-0.322192
-0.318936
-0.315685
-0.312428
-0.309155
-0.305846
-0.302466
-0.29892
-0.295417
-0.291982
-0.288653
-0.285432
-0.282374
-0.279511
-0.276845
-0.274388
-0.272107
-0.347595
-0.34475
-0.341483
-0.338385
-0.335212
-0.331985
-0.328726
-0.325458
-0.322194
-0.318938
-0.315685
-0.312427
-0.30915
-0.305831
-0.302424
-0.298719
-0.295086
-0.291534
-0.287867
-0.284535
-0.281349
-0.278389
-0.275648
-0.273118
-0.27082
-0.268732
-0.286967
-0.283598
-0.280159
-0.2771
-0.274292
-0.271744
-0.269399
-0.267305
-0.265425
-0.278873
-0.275644
-0.272782
-0.270194
-0.267879
-0.265766
-0.263873
-0.27401
-0.271093
-0.268504
-0.266189
-0.264118
-0.262261
-0.260606
-0.269188
-0.266636
-0.264352
-0.26233
-0.260522
-0.258941
-0.264577
-0.262362
-0.260401
-0.258683
-0.257151
-0.255753
-0.262334
-0.260198
-0.258339
-0.256712
-0.255257
-0.253976
-0.257828
-0.256143
-0.254618
-0.253293
-0.252165
-0.255281
-0.253792
-0.252417
-0.251226
-0.250166
-0.251323
-0.250113
-0.249072
-0.248139
-0.24868
-0.247717
-0.246835
-0.246046
-0.245434
-0.246001
-0.245234
-0.244528
-0.243897
-0.243357
-0.243207
-0.242701
-0.242173
-0.241705
-0.241304
-0.240104
-0.239783
-0.239502
-0.239243
-0.237479
-0.237373
-0.237251
-0.237142
-0.234858
-0.234955
-0.235018
-0.235025
-0.232236
-0.232546
-0.232779
-0.229683
-0.23019
-0.230537
-0.227173
-0.227851
-0.228413
-0.223643
-0.224751
-0.225597
-0.226257
-0.221199
-0.222394
-0.223371
-0.21887
-0.220156
-0.221268
-0.216605
-0.217978
-0.219279
-0.21448
-0.215988
-0.212516
-0.347592
-0.344752
-0.341431
-0.338384
-0.335212
-0.331985
-0.328726
-0.325459
-0.322196
-0.318942
-0.315696
-0.312453
-0.309209
-0.305966
-0.302727
-0.299489
-0.296484
-0.293525
-0.290657
-0.347868
-0.344679
-0.341411
-0.338358
-0.335198
-0.331978
-0.328723
-0.325456
-0.322194
-0.31894
-0.315692
-0.312445
-0.309193
-0.305932
-0.302653
-0.299347
-0.296226
-0.293202
-0.290221
-0.287392
-0.28462
-0.282224
-0.348012
-0.344295
-0.341393
-0.338338
-0.335187
-0.33197
-0.328718
-0.325452
-0.32219
-0.318935
-0.315685
-0.312433
-0.309172
-0.305891
-0.302574
-0.29919
-0.29595
-0.292797
-0.28972
-0.286757
-0.283934
-0.281294
-0.278671
-0.348008
-0.344644
-0.341397
-0.338349
-0.335192
-0.331974
-0.32872
-0.325454
-0.322191
-0.318936
-0.315685
-0.312429
-0.309158
-0.305856
-0.302493
-0.299002
-0.295641
-0.292359
-0.289153
-0.286062
-0.283111
-0.280368
-0.277793
-0.275376
-0.347771
-0.344702
-0.341443
-0.338375
-0.335206
-0.331982
-0.328725
-0.325457
-0.322193
-0.318937
-0.315684
-0.312426
-0.309148
-0.30583
-0.302424
-0.298816
-0.295276
-0.291833
-0.288493
-0.285273
-0.282209
-0.279355
-0.276689
-0.274252
-0.271964
-0.347525
-0.344762
-0.294962
-0.291406
-0.28774
-0.28434
-0.281181
-0.278223
-0.275487
-0.272969
-0.270672
-0.268604
-0.283381
-0.279984
-0.276927
-0.274132
-0.271573
-0.269248
-0.267161
-0.265288
-0.278646
-0.275463
-0.272607
-0.270035
-0.26771
-0.265613
-0.263726
-0.273795
-0.270907
-0.268326
-0.266007
-0.263963
-0.262104
-0.260536
-0.269047
-0.26645
-0.264182
-0.262161
-0.260371
-0.258787
-0.264381
-0.262185
-0.260233
-0.258526
-0.257
-0.25563
-0.262137
-0.260009
-0.258162
-0.256555
-0.255107
-0.253869
-0.257641
-0.255962
-0.254456
-0.253133
-0.252008
-0.255141
-0.253606
-0.252247
-0.251067
-0.250004
-0.251138
-0.249932
-0.248914
-0.247992
-0.24726
-0.248431
-0.247531
-0.246663
-0.245888
-0.245206
-0.245799
-0.245059
-0.244365
-0.243745
-0.243191
-0.243034
-0.242505
-0.242006
-0.241564
-0.241142
-0.240197
-0.239916
-0.239615
-0.239345
-0.239088
-0.237279
-0.237288
-0.237202
-0.237092
-0.236985
-0.234486
-0.234675
-0.234789
-0.234862
-0.234911
-0.231708
-0.232064
-0.232384
-0.23263
-0.232838
-0.228866
-0.229492
-0.230022
-0.230432
-0.230739
-0.22612
-0.227002
-0.22769
-0.228265
-0.223565
-0.224583
-0.225431
-0.226105
-0.221036
-0.222245
-0.223237
-0.22406
-0.218684
-0.219998
-0.221125
-0.222144
-0.214788
-0.216434
-0.217864
-0.219087
-0.212469
-0.214299
-0.215824
-0.217215
-0.208359
-0.210488
-0.212308
-0.213915
-0.206474
-0.208542
-0.210436
-0.204726
-0.20676
-0.203099
-0.29635
-0.293531
-0.347667
-0.344727
-0.341465
-0.338378
-0.335208
-0.331983
-0.328725
-0.325458
-0.322195
-0.31894
-0.315691
-0.312442
-0.309186
-0.305915
-0.302613
-0.29924
-0.296124
-0.293076
-0.290108
-0.287212
-0.284546
-0.347812
-0.344678
-0.341428
-0.338367
-0.335202
-0.33198
-0.328723
-0.325456
-0.322193
-0.318938
-0.315687
-0.312433
-0.309168
-0.305877
-0.302537
-0.299083
-0.295843
-0.292675
-0.289597
-0.286617
-0.283799
-0.281111
-0.278724
-0.347779
-0.34469
-0.341456
-0.338371
-0.335204
-0.331981
-0.328724
-0.325457
-0.322193
-0.318937
-0.315685
-0.312427
-0.309153
-0.305843
-0.302456
-0.298891
-0.29551
-0.292232
-0.28901
-0.285916
-0.282974
-0.280225
-0.277645
-0.275155
-0.347606
-0.344746
-0.341477
-0.338385
-0.335213
-0.331985
-0.328726
-0.325457
-0.322193
-0.318937
-0.315684
-0.312424
-0.309144
-0.305818
-0.302393
-0.298723
-0.295226
-0.291677
-0.288338
-0.285124
-0.282062
-0.279197
-0.276543
-0.274092
-0.271831
-0.290985
-0.287641
-0.284181
-0.281013
-0.278055
-0.275332
-0.272823
-0.270534
-0.268438
-0.283157
-0.279801
-0.276752
-0.273959
-0.271422
-0.269104
-0.267029
-0.265156
-0.278398
-0.27527
-0.272428
-0.26987
-0.267559
-0.26547
-0.263587
-0.273577
-0.270707
-0.268157
-0.265863
-0.263803
-0.261961
-0.260307
-0.268735
-0.266282
-0.264013
-0.262011
-0.260221
-0.258646
-0.264188
-0.262008
-0.260068
-0.258371
-0.256852
-0.255492
-0.261949
-0.259822
-0.257985
-0.256387
-0.254957
-0.253731
-0.257432
-0.255781
-0.254294
-0.252972
-0.251852
-0.254932
-0.253414
-0.252075
-0.250909
-0.249858
-0.250948
-0.249759
-0.248747
-0.24784
-0.247079
-0.248294
-0.247356
-0.246501
-0.245728
-0.245048
-0.245557
-0.24488
-0.244213
-0.243604
-0.243079
-0.242829
-0.242325
-0.241851
-0.241428
-0.2411
-0.239979
-0.239725
-0.239458
-0.239202
-0.238975
-0.23712
-0.237104
-0.237035
-0.236943
-0.23677
-0.234273
-0.234484
-0.234618
-0.234696
-0.234722
-0.231426
-0.231877
-0.232217
-0.232471
-0.232688
-0.228633
-0.229313
-0.229857
-0.230276
-0.230634
-0.225991
-0.226821
-0.227533
-0.228102
-0.228578
-0.223365
-0.224414
-0.225265
-0.225993
-0.219328
-0.220846
-0.222079
-0.223077
-0.223882
-0.216914
-0.218494
-0.219838
-0.220964
-0.22191
-0.214573
-0.216263
-0.217698
-0.218943
-0.210215
-0.212364
-0.214147
-0.215677
-0.216946
-0.20816
-0.210321
-0.212153
-0.213746
-0.203803
-0.20629
-0.208408
-0.21028
-0.211916
-0.202055
-0.204502
-0.206645
-0.208545
-0.197791
-0.200532
-0.202864
-0.205015
-0.193706
-0.196379
-0.199054
-0.201368
-0.19249
-0.195247
-0.19764
-0.347523
-0.344763
-0.341508
-0.338389
-0.335213
-0.331985
-0.328726
-0.325458
-0.322195
-0.31894
-0.31569
-0.312438
-0.309179
-0.305899
-0.302574
-0.299083
-0.296018
-0.293012
-0.289906
-0.287211
-0.347601
-0.344748
-0.341431
-0.338386
-0.335212
-0.331985
-0.328726
-0.325458
-0.322195
-0.318939
-0.315688
-0.312432
-0.309163
-0.305864
-0.302509
-0.299104
-0.295741
-0.292559
-0.289464
-0.286484
-0.283627
-0.280933
-0.347578
-0.344755
-0.341497
-0.338387
-0.335212
-0.331985
-0.328726
-0.325458
-0.322194
-0.318938
-0.315685
-0.312426
-0.30915
-0.305834
-0.302429
-0.29883
-0.29549
-0.292097
-0.28886
-0.285774
-0.282835
-0.28008
-0.277484
-0.27519
-0.29488
-0.291608
-0.288266
-0.284959
-0.281911
-0.279046
-0.276397
-0.273959
-0.27173
-0.287388
-0.284082
-0.280832
-0.277893
-0.275174
-0.272674
-0.270399
-0.268307
-0.279679
-0.27658
-0.2738
-0.271268
-0.268956
-0.266859
-0.275139
-0.27225
-0.269706
-0.267406
-0.265321
-0.263452
-0.270573
-0.267987
-0.265698
-0.263651
-0.261829
-0.260191
-0.268668
-0.266093
-0.263841
-0.261851
-0.260072
-0.258518
-0.264043
-0.261826
-0.259899
-0.258207
-0.256707
-0.255349
-0.261796
-0.259644
-0.25782
-0.256226
-0.254809
-0.253602
-0.257245
-0.255607
-0.254118
-0.252826
-0.251713
-0.254717
-0.253238
-0.251906
-0.25075
-0.249714
-0.25076
-0.249586
-0.248575
-0.247685
-0.246938
-0.248107
-0.247182
-0.246342
-0.245572
-0.244908
-0.245325
-0.244706
-0.244042
-0.243458
-0.243002
-0.242617
-0.242145
-0.241685
-0.241287
-0.240956
-0.23978
-0.239543
-0.239306
-0.239054
-0.238825
-0.23691
-0.236915
-0.236873
-0.236793
-0.236713
-0.234054
-0.234294
-0.23446
-0.234542
-0.234588
-0.231238
-0.231689
-0.232053
-0.232307
-0.232451
-0.228527
-0.229133
-0.229688
-0.230116
-0.230483
-0.225782
-0.226646
-0.227376
-0.227952
-0.228458
-0.22315
-0.224238
-0.225107
-0.225847
-0.226536
-0.219265
-0.220659
-0.22191
-0.222921
-0.223793
-0.21671
-0.218328
-0.219678
-0.220819
-0.221771
-0.212319
-0.214372
-0.216093
-0.217538
-0.218795
-0.219937
-0.210068
-0.21218
-0.213987
-0.215521
-0.216851
-0.205516
-0.208034
-0.210154
-0.211998
-0.213608
-0.215009
-0.203639
-0.206113
-0.208251
-0.210142
-0.211784
-0.199178
-0.201939
-0.204347
-0.206485
-0.208401
-0.210142
-0.194728
-0.197708
-0.200347
-0.202713
-0.204849
-0.206769
-0.190388
-0.193508
-0.196336
-0.198876
-0.201206
-0.203343
-0.186318
-0.189412
-0.192331
-0.195062
-0.19759
-0.199837
-0.182549
-0.185592
-0.188512
-0.191287
-0.193991
-0.184979
-0.187725
-0.292385
-0.289406
-0.286263
-0.283555
-0.291887
-0.288819
-0.285635
-0.282691
-0.279939
-0.277313
-0.288002
-0.284876
-0.281751
-0.278902
-0.276256
-0.27378
-0.283844
-0.280718
-0.277726
-0.275017
-0.272531
-0.270236
-0.279439
-0.27645
-0.27364
-0.271115
-0.268814
-0.266697
-0.274984
-0.272086
-0.269548
-0.267251
-0.265177
-0.263284
-0.270357
-0.267816
-0.265538
-0.263497
-0.261681
-0.265936
-0.263677
-0.261692
-0.259923
-0.258411
-0.263789
-0.261655
-0.259737
-0.258057
-0.25658
-0.259457
-0.257655
-0.256069
-0.254656
-0.25343
-0.257028
-0.255435
-0.253958
-0.252673
-0.251571
-0.254624
-0.253076
-0.251744
-0.250595
-0.249575
-0.250571
-0.249417
-0.248435
-0.247538
-0.246817
-0.24786
-0.247014
-0.246183
-0.245428
-0.24478
-0.245185
-0.244531
-0.243868
-0.243301
-0.242803
-0.242443
-0.241962
-0.241522
-0.241127
-0.240847
-0.239585
-0.239362
-0.23912
-0.238902
-0.238683
-0.236712
-0.236731
-0.23671
-0.236648
-0.236575
-0.233853
-0.234111
-0.234273
-0.234389
-0.234462
-0.231082
-0.231506
-0.231885
-0.232151
-0.232274
-0.228372
-0.228962
-0.229516
-0.229959
-0.230311
-0.225575
-0.226476
-0.227215
-0.227811
-0.228327
-0.221529
-0.222967
-0.22407
-0.224942
-0.22569
-0.226305
-0.219067
-0.220485
-0.221746
-0.222758
-0.223658
-0.216544
-0.218145
-0.219521
-0.220668
-0.221592
-0.212193
-0.214174
-0.215921
-0.217383
-0.218647
-0.219728
-0.209911
-0.212007
-0.213824
-0.215369
-0.216724
-0.20547
-0.207832
-0.209983
-0.211843
-0.213455
-0.214819
-0.200637
-0.203481
-0.205948
-0.208089
-0.209989
-0.211664
-0.196016
-0.198987
-0.201759
-0.204185
-0.206331
-0.208252
-0.209902
-0.191412
-0.194551
-0.197529
-0.200181
-0.202557
-0.204698
-0.206645
-0.186947
-0.190323
-0.19335
-0.196162
-0.198727
-0.201063
-0.203209
-0.179491
-0.182917
-0.186239
-0.189311
-0.192203
-0.194911
-0.197395
-0.199737
-0.172664
-0.175901
-0.17923
-0.182374
-0.185487
-0.188401
-0.191166
-0.193771
-0.196317
-0.172819
-0.175807
-0.1788
-0.181888
-0.18477
-0.187628
-0.190209
-0.192619
-0.178698
-0.1814
-0.18407
-0.282398
-0.281584
-0.278755
-0.276111
-0.280433
-0.27765
-0.274872
-0.272402
-0.270107
-0.276234
-0.273531
-0.270966
-0.268646
-0.266624
-0.271948
-0.269391
-0.267097
-0.265036
-0.270162
-0.267661
-0.26538
-0.263347
-0.261509
-0.265678
-0.263507
-0.261537
-0.259785
-0.258152
-0.261493
-0.25958
-0.257901
-0.256405
-0.259276
-0.257499
-0.255913
-0.254507
-0.253257
-0.256894
-0.255258
-0.253798
-0.252523
-0.251413
-0.252894
-0.251576
-0.250438
-0.249474
-0.250316
-0.249254
-0.248276
-0.247403
-0.247707
-0.246838
-0.246024
-0.245286
-0.244674
-0.245051
-0.244349
-0.243714
-0.243141
-0.242634
-0.242242
-0.241783
-0.241351
-0.24096
-0.24063
-0.239393
-0.239178
-0.238957
-0.238739
-0.238568
-0.236522
-0.236549
-0.236533
-0.236493
-0.236438
-0.233667
-0.233931
-0.23412
-0.234241
-0.234316
-0.230879
-0.231332
-0.231727
-0.232002
-0.23216
-0.228165
-0.228792
-0.229369
-0.22981
-0.230206
-0.225386
-0.22631
-0.227063
-0.22766
-0.22819
-0.221338
-0.222779
-0.223898
-0.224772
-0.22554
-0.226199
-0.218881
-0.220308
-0.221576
-0.222607
-0.223507
-0.216342
-0.21797
-0.219351
-0.220512
-0.221445
-0.211978
-0.213977
-0.215754
-0.217229
-0.218498
-0.219586
-0.209726
-0.21183
-0.21365
-0.215212
-0.216593
-0.205167
-0.20765
-0.20981
-0.211689
-0.213311
-0.214701
-0.200445
-0.203293
-0.205771
-0.207927
-0.209834
-0.211507
-0.213019
-0.195729
-0.198856
-0.201575
-0.204021
-0.206179
-0.2081
-0.20978
-0.187931
-0.191136
-0.19444
-0.197348
-0.200017
-0.202402
-0.204548
-0.206489
-0.17992
-0.183354
-0.186884
-0.190149
-0.193182
-0.195993
-0.198571
-0.200918
-0.203056
-0.20502
-0.162495
-0.16569
-0.168885
-0.172531
-0.175926
-0.179439
-0.182813
-0.18606
-0.189144
-0.192045
-0.194766
-0.197259
-0.19955
-0.201651
-0.163002
-0.165983
-0.16933
-0.172512
-0.175845
-0.17906
-0.182231
-0.185311
-0.188241
-0.19102
-0.193619
-0.196116
-0.19825
-0.166441
-0.16943
-0.172594
-0.175671
-0.178714
-0.181711
-0.184628
-0.187416
-0.190079
-0.192668
-0.169834
-0.172465
-0.175508
-0.178391
-0.181218
-0.184014
-0.186706
-0.270766
-0.268574
-0.269215
-0.266997
-0.264914
-0.267479
-0.26523
-0.263205
-0.261391
-0.263393
-0.261383
-0.259603
-0.26129
-0.259416
-0.257759
-0.256314
-0.259183
-0.257333
-0.255761
-0.254392
-0.255082
-0.253638
-0.252375
-0.251216
-0.252716
-0.251414
-0.250286
-0.249314
-0.250141
-0.249083
-0.248118
-0.247292
-0.247577
-0.246666
-0.245864
-0.245141
-0.244766
-0.244161
-0.243552
-0.242988
-0.242553
-0.242052
-0.24161
-0.241183
-0.240797
-0.24044
-0.239235
-0.239003
-0.238788
-0.23858
-0.238355
-0.236403
-0.236374
-0.236373
-0.236334
-0.236271
-0.233483
-0.233745
-0.233956
-0.234089
-0.234184
-0.230653
-0.231154
-0.231564
-0.231864
-0.232126
-0.227944
-0.228616
-0.229207
-0.229667
-0.230073
-0.22521
-0.226139
-0.226886
-0.227502
-0.228041
-0.221141
-0.222603
-0.223729
-0.224629
-0.225394
-0.226114
-0.218684
-0.22013
-0.221408
-0.222453
-0.22336
-0.216149
-0.217794
-0.219203
-0.220363
-0.221301
-0.211777
-0.213798
-0.215579
-0.21707
-0.218347
-0.219448
-0.207007
-0.20953
-0.211653
-0.213517
-0.215063
-0.21645
-0.204921
-0.207477
-0.209641
-0.211529
-0.213166
-0.21457
-0.20023
-0.203116
-0.205597
-0.207755
-0.209677
-0.211351
-0.212896
-0.195503
-0.198656
-0.201402
-0.203857
-0.206024
-0.207954
-0.209672
-0.187438
-0.191042
-0.194248
-0.197178
-0.19985
-0.202247
-0.204396
-0.206355
-0.152372
-0.155231
-0.158286
-0.161561
-0.164926
-0.168597
-0.172224
-0.175914
-0.179599
-0.183139
-0.186718
-0.189961
-0.193001
-0.195836
-0.198414
-0.200765
-0.202892
-0.20484
-0.153539
-0.156144
-0.159158
-0.162248
-0.165522
-0.168878
-0.172328
-0.175811
-0.179263
-0.182642
-0.185886
-0.188983
-0.191885
-0.194604
-0.19711
-0.199398
-0.201504
-0.157105
-0.159864
-0.162858
-0.165976
-0.169147
-0.172376
-0.175655
-0.178889
-0.182069
-0.185146
-0.188092
-0.190867
-0.193469
-0.195906
-0.198148
-0.160578
-0.163409
-0.16635
-0.169358
-0.172419
-0.175494
-0.17856
-0.181553
-0.184472
-0.187271
-0.189923
-0.192512
-0.194755
-0.166604
-0.169504
-0.172441
-0.175328
-0.178237
-0.181076
-0.183873
-0.186579
-0.189017
-0.175215
-0.177955
-0.180552
-0.261213
-0.259212
-0.257637
-0.257156
-0.255649
-0.254211
-0.254882
-0.253496
-0.25223
-0.252547
-0.251248
-0.250137
-0.249088
-0.250088
-0.248914
-0.247955
-0.247164
-0.246485
-0.245705
-0.24502
-0.243988
-0.243394
-0.242851
-0.241428
-0.241024
-0.240638
-0.240229
-0.238819
-0.238626
-0.238417
-0.238274
-0.236193
-0.236209
-0.236179
-0.236151
-0.233201
-0.23357
-0.233798
-0.233947
-0.234056
-0.230533
-0.230979
-0.231404
-0.231721
-0.231979
-0.227709
-0.228432
-0.229045
-0.229514
-0.229916
-0.225066
-0.225963
-0.226728
-0.227359
-0.227873
-0.222428
-0.223559
-0.224472
-0.225261
-0.218498
-0.219948
-0.221242