/*--------------------------------*- C++ -*----------------------------------*\
| =========                 |                                                 |
| \\      /  F ield         | OpenFOAM: The Open Source CFD Toolbox           |
|  \\    /   O peration     | Version:  v1906                                 |
|   \\  /    A nd           | Web:      www.OpenFOAM.com                      |
|    \\/     M anipulation  |                                                 |
\*---------------------------------------------------------------------------*/
FoamFile
{
    version     2.0;
    format      ascii;
    class       volScalarField;
    location    "0.5";
    object      s;
}
// * * * * * * * * * * * * * * * * * * * * * * * * * * * * * * * * * * * * * //

dimensions      [0 0 0 0 0 0 0];


internalField   nonuniform List<scalar> 
146744
(
1.43001e-11
-7.25692e-08
6.86943e-06
0.000243447
0.00252161
0.0116276
0.0336419
0.0727043
0.127369
0.189573
0.247386
0.290277
0.312085
0.311105
0.287713
0.234546
0.219076
1.31275e-11
-2.16225e-08
4.18951e-06
0.000148322
0.00156156
0.0077533
0.0242516
0.0566896
0.107144
0.171334
0.239453
0.300141
0.346826
0.361655
0.354846
0.32974
0.255601
0.192995
1.52238e-11
-2.27561e-08
4.68267e-06
0.000166309
0.00178525
0.00881578
0.0271845
0.0622027
0.114608
0.178505
0.243085
0.297941
0.334286
0.345372
0.334519
0.290196
0.249414
0.173684
3.16665e-11
-7.13567e-08
1.64705e-05
0.000388753
0.00379239
0.0163308
0.0436722
0.0878188
0.143805
0.200791
0.247021
0.274833
0.281974
0.270914
0.247612
2.51462e-11
-5.20164e-08
8.8935e-06
0.000317235
0.00333265
0.0148801
0.0408955
0.0831352
0.136544
0.190907
0.235463
0.262598
0.268793
0.254664
0.223157
0.201676
1.20906e-11
-1.3813e-08
2.09284e-06
7.13668e-05
0.0007655
0.0040448
0.0136795
0.0351382
0.0736285
0.130639
0.201352
0.276126
0.344229
0.397299
0.416528
0.408121
0.345574
0.248607
0.194349
4.41337e-12
-6.8355e-09
2.24638e-07
2.20459e-05
0.000271743
0.00160384
0.00598598
0.0171053
0.0401518
0.0798864
0.137592
0.209898
0.289767
0.367554
0.431126
0.46725
0.454575
0.382812
0.264245
0.15098
6.42417e-12
-9.67142e-09
8.82619e-07
3.50889e-05
0.000397404
0.00227449
0.00829233
0.0229819
0.0519547
0.0990988
0.163307
0.238272
0.314673
0.382365
0.430822
0.447278
0.428613
0.359353
0.27553
0.162356
0.0963148
9.90209e-12
-1.90282e-08
5.72588e-06
0.000177976
0.00185527
0.00903819
0.027461
0.0621793
0.113943
0.177151
0.241056
0.294483
0.329388
0.342531
0.333794
0.310497
0.26238
0.203131
0.17027
0.128144
0.0755381
1.55693e-11
-2.57197e-08
6.03789e-06
0.000171584
0.0017732
0.00858658
0.0263091
0.0601282
0.111132
0.174027
0.238402
0.293066
0.329511
0.342955
0.331604
0.306098
0.256351
0.186181
7.78605e-12
-4.70231e-09
1.64246e-07
1.45918e-05
0.000179684
0.00109843
0.0042003
0.012541
0.0309528
0.0645164
0.116208
0.184551
0.264209
0.346659
0.420795
0.472088
0.477083
0.41039
0.282348
0.162298
-1.27721e-11
-1.50412e-08
4.89089e-09
3.64565e-06
5.02759e-05
0.000320711
0.0013137
0.00420083
0.0114165
0.0267629
0.0548396
0.099516
0.162747
0.242998
0.334564
0.422207
0.490178
0.501449
0.444602
0.302728
0.172576
-5.47382e-13
-1.24081e-08
4.06185e-08
6.16592e-06
7.99425e-05
0.000513922
0.00212315
0.00675824
0.0179066
0.0402322
0.0781634
0.133576
0.204848
0.286491
0.369517
0.438201
0.482935
0.480131
0.446252
0.361049
0.241784
0.126947
1.1301e-11
-9.75671e-09
1.74852e-06
5.23202e-05
0.000561464
0.00303941
0.0106334
0.0283459
0.0619147
0.114026
0.181897
0.256893
0.327953
0.384531
0.41766
0.417851
0.385849
0.340114
0.304873
0.265213
0.210942
0.129983
0.068892
2.62698e-11
-7.62011e-08
1.60183e-05
0.000375833
0.00364073
0.0157155
0.0424169
0.0862793
0.142978
0.201432
0.249714
0.27942
0.28807
0.278157
0.255799
0.227149
0.150417
0.122173
0.111725
0.105672
0.093929
0.0592983
0.0442566
0.0374962
0.0273269
9.68725e-12
-9.0405e-09
2.3412e-06
7.14955e-05
0.000759368
0.00395883
0.0134598
0.034674
0.072854
0.129609
0.199867
0.274384
0.342215
0.39547
0.414127
0.40705
0.345061
0.260204
0.156585
4.37177e-12
-1.33263e-08
-9.18236e-09
3.49841e-06
5.32088e-05
0.00033864
0.00137552
0.00443099
0.0122722
0.0290509
0.059204
0.106242
0.171186
0.25217
0.343487
0.429659
0.492641
0.497572
0.4154
0.249013
0.135398
-3.33993e-11
-9.84999e-09
3.64698e-09
1.29019e-06
1.33987e-05
7.3493e-05
0.000273638
0.000853047
0.00250559
0.00688003
0.0169631
0.0370819
0.0723658
0.127533
0.20473
0.298104
0.405565
0.493009
0.510961
0.448281
0.297148
0.123359
-1.62896e-11
-1.3351e-08
-6.06827e-09
1.78955e-06
2.27801e-05
0.000144363
0.00060241
0.0020279
0.00590108
0.015032
0.0334348
0.0654638
0.114478
0.181175
0.262388
0.346806
0.42914
0.483085
0.500457
0.477383
0.393678
0.240384
0.0905657
2.8256e-12
-2.66185e-09
2.72339e-07
1.75526e-05
0.000216704
0.00124676
0.00464716
0.0137292
0.0336217
0.0693909
0.123447
0.19289
0.270194
0.344928
0.406005
0.441768
0.445247
0.431716
0.411197
0.384033
0.348339
0.277473
0.155325
0.0596873
1.01209e-11
-2.71585e-08
6.61129e-06
0.000245547
0.00259346
0.0120224
0.0345729
0.0738931
0.127867
0.187919
0.243276
0.284824
0.298626
0.300231
0.283643
0.256963
0.218215
0.186083
0.17733
0.188119
0.195365
0.199166
0.159284
0.0806963
0.0518781
0.0591042
0.0824446
0.100652
0.0799363
0.0357943
0.0232421
0.0380465
0.0474042
0.0312279
0.0190354
0.0171461
0.0131888
0.00792471
0.00711462
1.36929e-05
0.000349681
0.00347286
0.0151459
0.0415982
0.0857409
0.143276
0.203053
0.252155
0.281848
0.288233
0.273248
0.239957
0.183632
8.02891e-12
-5.28277e-09
5.92033e-07
3.53892e-05
0.000384894
0.00202783
0.00707204
0.0197638
0.0456052
0.0891755
0.15059
0.225003
0.303508
0.376023
0.433087
0.447777
0.428949
0.341817
0.238904
0.13624
-2.19206e-11
-1.23594e-08
-3.70469e-08
1.27935e-06
2.27194e-05
0.000138289
0.00055215
0.00178389
0.00512783
0.0133083
0.0300184
0.0597773
0.106642
0.173381
0.260561
0.359498
0.450183
0.506152
0.490975
0.369559
0.179777
-1.1433e-11
-4.5763e-09
-5.54773e-09
4.22625e-07
4.13793e-06
2.06181e-05
6.80375e-05
0.000185978
0.000542138
0.00170415
0.0051466
0.0138064
0.0322546
0.0662341
0.120798
0.197479
0.298939
0.413236
0.489903
0.499638
0.394553
0.197955
0.0909292
-3.21775e-11
-8.34191e-09
-2.02735e-08
6.72034e-07
8.72658e-06
5.49578e-05
0.000216326
0.000704116
0.00210364
0.00581303
0.0146258
0.0327039
0.0644961
0.113456
0.180047
0.25764
0.343965
0.416266
0.461879
0.488145
0.466771
0.353909
0.172945
0.0708731
3.60454e-12
-2.6061e-08
-2.45343e-08
9.70741e-06
0.000124625
0.000705599
0.00264475
0.00789197
0.0206127
0.0461927
0.0885677
0.148183
0.220802
0.298043
0.369272
0.418884
0.444652
0.447231
0.444595
0.435758
0.418253
0.375766
0.258192
0.111035
1.00848e-11
-1.56606e-08
6.64486e-06
0.00020092
0.00210742
0.00992112
0.0297877
0.066346
0.119288
0.181379
0.242281
0.291914
0.316382
0.320313
0.309793
0.288207
0.249851
0.243227
0.237106
0.250361
0.264318
0.280355
0.253649
0.159791
0.0574543
0.0608084
0.0887468
0.133869
0.165229
0.150162
0.0792372
0.0246264
0.0328887
0.0660055
0.0937396
0.078126
0.0302523
0.0141645
0.0383721
0.0517184
0.0326781
0.0109746
0.0100973
0.0238194
0.0241494
0.00922073
0.00761691
0.0129947
0.00859024
0.00467333
0.00531508
0.00186268
0.00232447
0.000719499
7.45665e-06
0.000237928
0.00248086
0.0114659
0.0333546
0.0720866
0.125538
0.185345
0.240277
0.28073
0.293448
0.29153
0.267464
0.223212
0.128429
8.88566e-12
-6.29396e-09
3.82287e-07
1.66005e-05
0.000201422
0.00114
0.00422657
0.0125246
0.0311993
0.0654822
0.117837
0.186603
0.265511
0.345934
0.416372
0.465097
0.451494
0.405884
0.270828
0.153979
-3.74876e-12
-1.09294e-08
-2.12191e-08
8.31356e-07
1.18286e-05
7.00907e-05
0.000281457
0.00093802
0.00279114
0.00752404
0.018159
0.0393853
0.0755466
0.130781
0.208604
0.30524
0.405273
0.481813
0.499392
0.431444
0.237164
0.100299
-4.06781e-12
-8.34627e-10
-3.41084e-09
5.92507e-07
3.20039e-06
1.36568e-05
5.18346e-05
0.00019143
0.000668188
0.00207907
0.00572833
0.0146102
0.0334528
0.066487
0.116809
0.183778
0.26726
0.340267
0.434622
0.49061
0.451149
0.283376
0.102616
-1.55323e-11
-4.14156e-09
-1.2792e-08
3.09383e-07
4.54216e-06
2.92786e-05
0.000118941
0.000423047
0.00137776
0.0040319
0.0104166
0.0238867
0.0487689
0.0885182
0.144736
0.211573
0.286006
0.356487
0.40635
0.448879
0.466566
0.415574
0.249205
0.0805185
-1.90662e-12
-2.61701e-08
2.02352e-08
5.03632e-06
7.13694e-05
0.000419039
0.00165036
0.00524764
0.0145452
0.0344376
0.0694405
0.121567
0.188547
0.263477
0.336072
0.395407
0.4221
0.432328
0.430762
0.427483
0.422468
0.405973
0.330321
0.177873
0.0534492
7.40499e-12
-9.82041e-09
3.32693e-06
9.95419e-05
0.00108862
0.00567418
0.0185985
0.0457043
0.0909006
0.152107
0.221271
0.286615
0.337418
0.361293
0.361612
0.320501
0.298988
0.272213
0.264922
0.277886
0.291767
0.309685
0.30211
0.227754
0.0944783
0.0670405
0.0806558
0.115861
0.161537
0.199721
0.200493
0.132808
0.0413017
0.0179923
0.0427441
0.0857077
0.125351
0.121265
0.0607428
0.0147845
0.00551021
0.0175573
0.0521883
0.0790601
0.0625214
0.0186064
0.0111372
0.0375966
0.0463766
0.0209393
0.00109547
0.0118817
0.0260596
0.0202899
0.00545506
0.00203108
0.0109655
0.0143757
0.00517815
0.00356548
0.00792267
0.00434487
0.00112392
0.00350592
0.00289038
0.00137515
0.00164099
0.000516611
0.000700693
0.00030651
0.000104033
1.10799e-05
0.000286359
0.00287723
0.0128761
0.0363913
0.0768908
0.131581
0.191411
0.244576
0.282319
0.294341
0.288803
0.262641
0.220561
0.142051
6.21212e-12
-5.5516e-09
3.98203e-07
2.09624e-05
0.00025604
0.00142411
0.005204
0.0151668
0.0365138
0.0742308
0.130265
0.201075
0.279565
0.355914
0.418883
0.457745
0.444343
0.401407
0.275931
0.187589
3.39388e-12
-1.06667e-08
-3.14573e-08
8.39978e-07
1.49111e-05
9.06554e-05
0.000368206
0.00121608
0.00357098
0.00949495
0.0226404
0.0471449
0.0871501
0.145373
0.222884
0.314252
0.403455
0.47388
0.492824
0.450064
0.276962
0.121179
-7.10744e-12
-2.11985e-09
-2.46125e-09
1.62349e-06
8.62287e-06
3.74109e-05
0.000135379
0.000455949
0.00143847
0.00411175
0.0105741
0.0247137
0.0508009
0.0920941
0.148486
0.21622
0.288229
0.34615
0.420375
0.474011
0.459475
0.326997
0.144825
-2.31365e-11
-5.12982e-09
-1.92653e-08
3.7742e-07
5.54059e-06
3.78523e-05
0.000170111
0.000609531
0.00195297
0.00558279
0.0139313
0.0304129
0.0589978
0.102636
0.160936
0.224769
0.288427
0.344195
0.389203
0.425076
0.451694
0.429635
0.299793
0.119304
5.14636e-13
-2.56886e-08
-2.84554e-08
6.22801e-06
9.19653e-05
0.000523696
0.00201439
0.00627316
0.0170299
0.0395514
0.0780826
0.133722
0.20267
0.276368
0.344017
0.393723
0.411305
0.413818
0.40877
0.40334
0.401842
0.399315
0.357125
0.22503
0.0667747
1.11819e-11
-1.312e-08
5.8533e-06
0.000153116
0.00162545
0.00795474
0.0246498
0.057
0.106525
0.168488
0.232635
0.287222
0.323178
0.336008
0.326061
0.304571
0.284976
0.261965
0.255545
0.269131
0.279399
0.298665
0.307696
0.262627
0.137406
0.0375623
0.068549
0.0791388
0.117047
0.158712
0.197178
0.216432
0.168202
0.06395
0.0194141
0.046955
0.0849631
0.129783
0.142006
0.089302
0.0214501
0.00474116
0.0194642
0.0544861
0.0892875
0.0847734
0.0315941
0.00105313
0.012782
0.0412734
0.059749
0.0386343
0.00892623
0.000470208
0.0127945
0.0331944
0.0330665
0.010158
0.00182633
0.014428
0.0225641
0.0113208
0.00023814
0.00444225
0.0128576
0.00976253
0.00222379
0.000954407
0.00626609
0.00699565
0.00203837
0.000209612
0.00257613
0.00433187
0.0014943
0.00098974
0.00239318
0.00118157
0.00037697
0.00121587
0.00078553
0.000146609
0.000571415
0.000436366
8.33956e-05
0.000257894
0.000211207
0.000101825
0.000119671
3.60892e-05
5.86745e-05
1.31586e-05
8.86099e-12
-6.41966e-09
1.2244e-06
4.81953e-05
0.000556494
0.00292869
0.0101785
0.0271565
0.0593632
0.10995
0.176618
0.251463
0.323687
0.383557
0.423582
0.426007
0.410022
0.366558
0.25397
0.182388
-2.7713e-12
-1.22097e-08
-3.47218e-08
1.56609e-06
3.49094e-05
0.000220242
0.000887414
0.00286139
0.00815359
0.0202316
0.0433902
0.0816293
0.137027
0.208453
0.291628
0.376344
0.443928
0.486307
0.487899
0.439376
0.298673
0.124906
-2.08068e-11
-8.01382e-09
-2.0111e-10
7.26782e-07
8.90231e-06
4.84866e-05
0.000179587
0.000568573
0.00172053
0.00497813
0.0130162
0.0298893
0.0602474
0.107395
0.170972
0.245616
0.319958
0.395613
0.447311
0.478202
0.454303
0.331457
0.157205
-4.77775e-11
-1.14573e-08
-1.50533e-08
8.62423e-07
1.4965e-05
9.6778e-05
0.000401146
0.00134689
0.00403091
0.0107467
0.025188
0.0516315
0.0933939
0.1506
0.21823
0.28518
0.344818
0.383748
0.411543
0.435212
0.451642
0.427846
0.314438
0.12981
-1.25937e-12
-2.0107e-08
1.16393e-07
1.22822e-05
0.00016969
0.000968356
0.00364099
0.010888
0.0277039
0.0593522
0.108695
0.173999
0.247787
0.318502
0.374698
0.405933
0.411674
0.406779
0.397756
0.390597
0.388503
0.391449
0.361462
0.248742
0.0891926
9.18886e-12
-1.84881e-08
7.22334e-06
0.000234691
0.00244319
0.0113091
0.0329273
0.071248
0.124537
0.184994
0.24121
0.285223
0.29899
0.299186
0.283774
0.254262
0.229242
0.224611
0.224845
0.238192
0.252194
0.280672
0.298654
0.273232
0.162942
0.0423954
0.0606011
0.0689332
0.101296
0.137198
0.178157
0.210616
0.183493
0.0854013
0.0187931
0.018671
0.0378563
0.0697694
0.115359
0.14374
0.107309
0.030719
0.00362399
0.0158674
0.0431153
0.0824691
0.0931936
0.0469745
0.00930265
0.000699655
0.00978495
0.0341668
0.0610213
0.0495975
0.0121855
0.000319799
0.00958034
0.0309918
0.0394215
0.0179612
0.000163843
0.00111115
0.0123182
0.0253529
0.0177662
0.00397043
-1.11031e-05
0.00340801
0.013874
0.0143332
0.00360049
5.04781e-05
0.000579992
0.00663496
0.00989933
0.00349644
7.42618e-05
0.00278661
0.00621615
0.00308523
-9.64176e-07
0.00104211
0.00359214
0.00233002
1.89409e-05
0.000384492
0.00194794
0.00154767
0.000150879
0.00105056
0.000948235
6.55795e-05
0.000561408
0.000565881
3.65886e-05
0.000302443
0.00031589
2.51486e-05
0.000158242
0.000143492
1.89297e-05
8.11155e-05
6.73311e-05
1.14992e-05
3.56448e-05
2.87803e-05
6.2129e-06
1.44755e-05
1.26846e-05
2.11109e-06
4.83403e-06
5.74476e-07
2.0477e-06
8.87904e-12
-1.08867e-08
3.42218e-06
0.000104772
0.00111936
0.00564454
0.0182509
0.0446652
0.0889929
0.149966
0.219912
0.287538
0.342287
0.376267
0.382025
0.363574
0.336707
0.284862
0.213759
0.134881
4.85677e-12
-1.85226e-09
7.67395e-08
6.35114e-06
0.00010172
0.000634283
0.00252607
0.0079423
0.0206937
0.0456518
0.0868183
0.145075
0.217264
0.296347
0.373363
0.436343
0.47422
0.484072
0.465885
0.388639
0.231331
0.110256
-6.43311e-11
-1.38568e-08
4.99974e-09
1.82614e-06
2.9375e-05
0.0001698
0.00069465
0.0022819
0.00646911
0.016156
0.0352925
0.068168
0.117562
0.182719
0.258357
0.336001
0.402911
0.454922
0.48103
0.482134
0.431626
0.30641
0.14762
3.46032e-12
-1.55667e-08
5.83682e-09
2.63522e-06
4.68303e-05
0.000296564
0.00126047
0.00419368
0.0116318
0.0276471
0.0566234
0.101695
0.162453
0.233604
0.305417
0.366681
0.411916
0.433963
0.444875
0.451762
0.451226
0.414145
0.300993
0.127686
3.97677e-12
-3.4319e-09
5.91438e-07
2.8085e-05
0.000346548
0.00194677
0.00717307
0.0202229
0.0467062
0.0911851
0.152943
0.225548
0.297588
0.356866
0.393487
0.402647
0.394508
0.386427
0.377459
0.377695
0.380782
0.383878
0.352594
0.245886
0.0943201
1.70226e-11
-4.23418e-08
7.12358e-06
0.000277019
0.00290865
0.0130942
0.036934
0.0776546
0.132198
0.191251
0.243393
0.279156
0.292034
0.287279
0.266905
0.230166
0.180163
0.173433
0.185731
0.206594
0.232879
0.261268
0.288457
0.269954
0.170408
0.0442274
0.0454382
0.0542959
0.0853981
0.118479
0.160242
0.200764
0.185548
0.0924814
0.0222587
0.0145624
0.0290162
0.0567781
0.102898
0.138106
0.113565
0.0358501
0.0026803
0.0108893
0.0322167
0.0717711
0.0928474
0.0548587
0.0113103
0.000961713
0.00530733
0.0247512
0.055663
0.0540173
0.0169259
0.000263654
0.00470453
0.0246798
0.0392591
0.0228361
0.0040941
6.9887e-05
6.07348e-05
0.00755191
0.0229879
0.0208568
0.00493632
-0.000114725
0.00136719
0.011345
0.015789
0.00558271
-8.87642e-05
5.90429e-05
0.00477358
0.0103553
0.0055029
-7.22621e-05
0.00163534
0.00622001
0.00444206
-6.82568e-05
0.000529836
0.00355572
0.003294
0.000819163
-4.99672e-05
0.000159327
0.00199433
0.0022287
0.000566073
-1.2584e-05
5.34294e-05
0.00111891
0.00141924
0.000358475
2.21722e-05
0.000641275
0.000886806
0.000227301
1.1648e-05
0.000383126
0.000517306
0.000135968
9.88951e-06
0.000232235
0.000287678
6.9055e-05
1.14394e-05
0.000144941
0.000147347
1.30798e-05
8.55917e-05
6.33629e-05
1.29529e-05
4.76013e-05
2.62909e-05
5.90454e-07
1.03289e-05
2.33348e-05
1.07874e-05
1.25259e-06
6.67259e-06
8.94107e-06
9.48285e-07
3.09548e-06
3.1957e-06
4.82407e-07
9.92267e-07
1.22047e-06
1.61476e-07
3.15268e-07
5.78875e-08
1.30922e-11
-3.60296e-08
7.40423e-06
0.000243143
0.00255644
0.0118635
0.0343818
0.0738611
0.12801
0.188172
0.242665
0.283375
0.300082
0.300137
0.283621
0.243791
0.216372
0.190209
0.149553
1.22944e-11
-6.74589e-09
6.54486e-07
3.39828e-05
0.000408771
0.00231142
0.0083287
0.0228785
0.0514939
0.0980143
0.161403
0.235034
0.308984
0.372407
0.41745
0.434775
0.433586
0.416551
0.381237
0.300902
0.171574
0.0857168
-2.79173e-12
-1.80263e-08
4.07765e-08
7.89034e-06
0.000126435
0.00078046
0.00312504
0.00956055
0.0240945
0.0516409
0.0954715
0.155766
0.228063
0.303872
0.372961
0.427525
0.459951
0.473915
0.474478
0.452746
0.376514
0.254124
0.112142
4.70903e-12
-2.57121e-09
2.19996e-07
1.40143e-05
0.000194645
0.00118677
0.00464126
0.0137999
0.0335765
0.0690351
0.121913
0.189358
0.263309
0.332692
0.387088
0.421136
0.433805
0.439381
0.443929
0.446106
0.430534
0.377303
0.258316
0.110674
1.00117e-11
-1.0239e-08
3.14248e-06
9.65324e-05
0.00105341
0.0053926
0.0175772
0.0433233
0.0869425
0.147622
0.21716
0.283993
0.335605
0.362908
0.364541
0.346039
0.319483
0.313516
0.320032
0.340384
0.357663
0.361229
0.324886
0.222537
0.0865191
2.65921e-11
-5.91779e-08
0.13809
0.110748
0.135392
0.16406
0.203628
0.241615
0.270376
0.250538
0.15671
0.0431996
0.0398904
0.0671719
0.10573
0.149112
0.189914
0.175087
0.0893409
0.0233692
0.00860436
0.0238649
0.0521447
0.0948578
0.13131
0.109893
0.0371296
0.00206877
0.00842228
0.0286755
0.065692
0.0887581
0.0555228
0.0132498
0.000775345
0.00315952
0.0204132
0.0510577
0.0534074
0.0181134
0.000170685
0.00229142
0.0208466
0.0371654
0.024279
0.00538484
0.000122417
-0.000126137
0.00440255
0.0198297
0.0214633
0.00563586
-0.000101147
0.000231815
0.00881571
0.0153436
0.00676646
-2.55471e-05
-0.000119607
0.00273518
0.00943048
0.0062862
-0.000120786
0.000602454
0.00512648
0.00501248
0.00122628
-7.70247e-05
9.31418e-05
0.00269099
0.00357072
0.000948493
-4.16452e-05
-3.40655e-06
0.00145236
0.00237646
0.000658978
-2.70284e-05
-2.17816e-05
0.000797378
0.00152597
0.000458242
-1.37569e-05
-2.16229e-05
0.000461427
0.000958224
0.000300007
-4.702e-06
-1.6401e-05
0.000288944
0.000588174
0.00018118
-5.22335e-06
-9.81642e-06
0.000199662
0.000355763
9.68906e-05
-5.46303e-06
-3.18979e-06
0.000142324
0.00020386
4.94056e-05
-5.28176e-06
2.81706e-06
0.00010017
0.000106297
1.99224e-05
-3.16877e-06
8.82936e-06
6.60099e-05
5.06257e-05
-1.03326e-06
1.24433e-05
3.95393e-05
1.99528e-05
4.69843e-07
1.17816e-05
2.03867e-05
6.57639e-06
1.68611e-06
8.35805e-06
8.59677e-06
1.366e-06
1.1919e-07
1.94973e-06
4.48681e-06
2.3344e-06
3.3764e-07
1.40242e-06
1.52114e-06
5.04315e-07
6.16987e-08
2.96252e-07
6.38355e-07
4.02848e-07
4.44651e-08
1.51493e-07
1.61831e-07
1.70667e-08
3.57785e-08
5.0954e-09
0.129442
0.107073
1.11629e-11
-1.82414e-08
3.90218e-06
0.000135538
0.00146804
0.00721986
0.0225445
0.0531415
0.101955
0.165655
0.234674
0.296745
0.342797
0.361329
0.360134
0.330666
0.298502
0.269525
0.249337
0.179075
0.122473
1.0695e-11
-8.58027e-09
1.12645e-06
6.15645e-05
0.000729646
0.00393177
0.01338
0.0344566
0.0722356
0.128056
0.196696
0.268854
0.333506
0.381205
0.406496
0.409717
0.399249
0.39033
0.381953
0.353192
0.281001
0.176279
0.0800621
1.07726e-11
-1.04359e-08
2.12081e-06
7.89586e-05
0.000924312
0.00493404
0.016556
0.041589
0.0844485
0.144468
0.214009
0.282135
0.337618
0.372039
0.38234
0.372152
0.350827
0.353129
0.365095
0.378504
0.362945
0.306754
0.197986
0.0844627
1.12048e-11
-2.74856e-08
7.96736e-06
0.000276679
0.00284286
0.0127674
0.0362382
0.0769615
0.132434
0.193373
0.247498
0.284373
0.297703
0.291854
0.270667
0.228136
0.190357
0.20257
0.225097
0.265088
0.302291
0.312357
0.275139
0.175526
0.0616461
0.0674908
0.0757232
0.112265
0.162783
0.210403
0.238933
0.215196
0.1262
0.0355433
0.0236079
0.0522202
0.0931529
0.136805
0.171917
0.153587
0.0769178
0.0215609
0.00857677
0.0219796
0.050619
0.090494
0.120398
0.0978658
0.0335754
0.00228269
0.00832049
0.030371
0.064533
0.0822383
0.0504828
0.0119754
0.000573165
0.00337365
0.0215198
0.0488624
0.0500101
0.0173046
6.8175e-05
0.00257795
0.0200245
0.0352824
0.023045
0.00529305
9.7927e-05
-0.000258451
0.00425845
0.0187435
0.020471
0.00564688
-0.00016025
3.46968e-05
0.00747939
0.0145317
0.00673702
-1.26801e-05
-0.00019783
0.00202882
0.0086113
0.00627813
-0.000125216
0.000191871
0.00428631
0.00492676
0.00137369
-5.77662e-05
-3.04426e-05
0.00208617
0.00341072
0.00097678
-1.45949e-05
-5.38078e-05
0.000936732
0.00221705
0.000730034
-6.15217e-06
-4.7038e-05
0.000427745
0.00136533
0.00060513
-4.82328e-06
-3.52053e-05
0.000226376
0.000828627
0.000451153
-4.11084e-06
-2.54802e-05
0.000143847
0.000520663
0.000248749
-3.34102e-06
-1.69741e-05
0.000106596
0.000326692
0.000121328
-3.26424e-06
-1.06058e-05
8.38715e-05
0.000200763
5.92803e-05
-3.86593e-06
-5.09331e-06
7.06602e-05
0.000116881
2.90563e-05
-4.01522e-06
3.65562e-07
5.54501e-05
6.1827e-05
1.10902e-05
-3.13893e-06
6.47744e-06
3.95578e-05
2.88681e-05
-1.1743e-06
-1.48183e-06
9.97157e-06
2.41429e-05
9.33034e-06
-9.09191e-07
5.84418e-07
9.58353e-06
1.2002e-05
2.50052e-06
-3.45825e-07
2.13476e-06
6.62432e-06
4.67074e-06
-1.25224e-07
2.86423e-07
2.27478e-06
3.30728e-06
1.0887e-06
3.0713e-08
6.07505e-07
1.47364e-06
9.52617e-07
3.44293e-09
1.48346e-07
5.05295e-07
5.92039e-07
1.81397e-07
3.3218e-08
1.42829e-07
2.21055e-07
1.05234e-07
7.08e-09
3.15576e-08
6.22665e-08
3.93801e-08
1.0046e-09
4.6552e-09
1.18085e-08
1.05208e-08
2.75994e-10
1.26267e-09
1.64538e-09
3.04218e-11
-7.02916e-08
9.29187e-06
0.000365053
0.0037853
0.0163437
0.0439622
0.0887225
0.145352
0.202342
0.247598
0.273339
0.277692
0.264099
0.237572
0.176795
0.12359
0.125175
0.116899
0.108669
1.48876e-11
-3.5271e-08
8.58195e-06
0.000310359
0.00320277
0.0142406
0.0396195
0.0819263
0.136931
0.194749
0.244033
0.27701
0.29018
0.284432
0.267171
0.242686
0.22184
0.216768
0.21793
0.206082
0.161222
0.103166
1.45794e-11
-4.09774e-08
7.56435e-06
0.000315085
0.00333634
0.0148611
0.0409633
0.0834695
0.137249
0.192124
0.237324
0.265903
0.275062
0.266683
0.247386
0.204635
0.184879
0.195094
0.220264
0.246839
0.245573
0.203162
0.126565
0.0508865
0.0909172
0.0960381
0.115568
0.165424
0.211347
0.229872
0.202015
0.119172
0.0479812
0.0369225
0.0632562
0.109306
0.159124
0.188198
0.165834
0.0945582
0.0339559
0.0316886
0.068755
0.113142
0.143157
0.121903
0.0554385
0.0153388
0.0449897
0.0824485
0.104501
0.0782017
0.0264769
0.00840965
0.031484
0.0622788
0.0720622
0.0404928
0.0106069
0.000359324
0.00520081
0.0244801
0.046967
0.0436063
0.0150933
-4.61309e-05
0.00496518
0.0221808
0.0333804
0.0199471
0.00435903
0.000100771
-0.000258604
0.00640601
0.0193071
0.0187213
0.00501013
-0.000249275
0.000374695
0.00853374
0.0138749
0.00604016
-0.000103319
-0.000257234
0.00259858
0.00854201
0.00581875
-0.00020788
0.000288069
0.00431032
0.00462386
0.00128458
-0.000108106
-7.28964e-05
0.00212582
0.0032136
0.000934334
-2.4214e-05
-8.67792e-05
0.000853866
0.00206756
0.000736043
-3.94734e-06
-6.67671e-05
0.000296547
0.00123041
0.000696479
-1.10254e-06
-4.19322e-05
0.00011864
0.000716551
0.000493844
-4.21638e-07
-2.53148e-05
6.13194e-05
0.000431124
0.000304592
-3.69866e-07
-1.61699e-05
4.22518e-05
0.000264302
0.000166991
-5.46301e-07
-1.05851e-05
3.63157e-05
0.000165472
6.48604e-05
-1.46318e-06
-6.48866e-06
3.74777e-05
0.000100579
2.77715e-05
-2.25416e-06
-2.86539e-06
3.29229e-05
5.78086e-05
1.3297e-05
-2.34252e-06
4.05271e-07
2.76247e-05
2.98505e-05
3.25068e-06
-6.88987e-07
-1.72044e-06
4.19033e-06
2.00499e-05
1.28716e-05
-8.64539e-07
-5.49243e-07
6.19683e-06
1.19824e-05
3.71314e-06
-2.97801e-07
-6.15364e-07
9.3782e-07
5.6133e-06
5.58468e-06
6.40926e-07
-2.94084e-07
-6.64111e-08
1.81651e-06
3.61688e-06
1.70687e-06
-8.83246e-08
-1.21462e-07
4.51655e-07
1.60133e-06
1.56576e-06
2.57332e-07
-4.86082e-08
1.03648e-07
5.86075e-07
9.01742e-07
3.496e-07
-9.63263e-09
3.29884e-08
2.00738e-07
3.85102e-07
2.91519e-07
1.9309e-08
-4.10159e-10
1.41986e-08
6.78099e-08
1.40047e-07
1.28907e-07
2.27021e-08
6.8642e-10
5.78173e-09
2.16463e-08
4.41642e-08
4.22094e-08
9.07186e-09
2.5464e-10
1.39995e-09
5.34771e-09
1.06276e-08
9.07538e-09
1.98851e-09
2.2478e-11
1.75326e-10
6.82317e-10
1.16275e-09
1.07053e-09
4.18541e-11
5.76971e-11
0.0815267
0.0861217
0.0834162
0.082693
0.0797415
0.0824935
0.104917
0.118372
0.101253
0.0735183
0.0527586
0.0721722
0.106827
0.126917
0.115396
0.0648363
0.0323099
0.051669
0.0899401
0.117178
0.101631
0.0566795
0.0174332
0.0352647
0.0738328
0.0996023
0.0816917
0.0354555
0.00699614
0.0300001
0.0628018
0.0789196
0.0528219
0.0180786
0.00612213
0.0262797
0.0527578
0.0563063
0.0267078
0.00576409
0.0248428
0.0421667
0.0336171
0.0106868
0.000100324
0.00763501
0.0235581
0.0292046
0.0149555
0.000653462
0.00923827
0.0194763
0.0155297
0.00434778
-0.000213118
0.00194777
0.0102636
0.0126795
0.00475965
-0.000101048
-9.54506e-05
0.00414047
0.0086496
0.00496558
-0.000212265
0.00103538
0.00494647
0.00416651
0.00104622
-0.000161636
4.66213e-05
0.00251848
0.00307319
0.000805119
-6.90765e-05
-9.2341e-05
0.00111589
0.00204483
0.000631335
-2.24156e-05
-8.52176e-05
0.000441053
0.00124441
0.000577706
-5.90113e-06
-6.34973e-05
0.000171961
0.000724493
0.000443658
-1.43317e-06
-3.82038e-05
6.42185e-05
0.000414322
0.000286558
-3.75842e-07
-2.15378e-05
3.20962e-05
0.000242636
0.000167169
-1.94936e-07
-1.24136e-05
2.32654e-05
0.000145453
7.34859e-05
-3.71952e-07
-7.15554e-06
2.38986e-05
8.55639e-05
2.88721e-05
-6.21331e-07
-3.97236e-06
2.147e-05
4.85048e-05
1.3452e-05
-1.62114e-08
-1.04457e-06
-1.32574e-06
1.75166e-05
2.62159e-05
5.07604e-06
-1.16356e-07
-1.10789e-06
9.5067e-07
1.38547e-05
1.20547e-05
-3.50524e-07
-7.25932e-07
2.71282e-06
9.17577e-06
3.90454e-06
-1.20586e-07
-4.02942e-07
-9.66108e-09
3.30727e-06
5.04558e-06
1.16832e-06
-2.01249e-07
-2.1907e-07
7.94019e-07
2.73987e-06
2.02757e-06
-8.25681e-08
-1.48144e-07
1.2739e-07
1.04211e-06
1.49805e-06
4.56672e-07
-3.04731e-08
-7.18537e-08
3.0393e-09
3.58451e-07
7.80244e-07
5.20176e-07
-9.31128e-09
-2.75172e-08
-3.05152e-09
1.29916e-07
3.40784e-07
3.50835e-07
6.96996e-08
-2.15669e-09
-6.87486e-09
2.75041e-09
5.36094e-08
1.40113e-07
1.7112e-07
6.13378e-08
-5.91975e-10
-4.53118e-10
4.7571e-09
2.33077e-08
5.41067e-08
6.9518e-08
3.23537e-08
3.2032e-12
9.30539e-11
6.92603e-10
3.13399e-09
9.36026e-09
1.85477e-08
2.25778e-08
1.20209e-08
-9.09962e-13
6.90196e-12
8.01662e-11
3.59922e-10
1.1969e-09
2.84694e-09
4.81867e-09
5.30005e-09
1.97683e-09
3.27626e-13
7.19481e-12
5.05467e-11
2.07643e-10
4.86093e-10
6.56954e-10
5.3478e-10
3.74044e-10
5.42238e-12
1.70256e-11
3.63503e-11
0.0459057
0.0343719
0.0408194
0.0476608
0.0239954
0.028687
0.0467989
0.0481591
0.0320718
0.0141446
0.0288202
0.0485752
0.0415394
0.0217684
0.0133414
0.033119
0.0454664
0.0298337
0.0045501
0.015189
0.0334696
0.0356341
0.0169263
0.00445791
0.0182522
0.030255
0.0214963
0.00779865
0.00752787
0.0197284
0.0214419
0.00911255
0.00173083
0.0100498
0.0165935
0.010546
0.00338574
0.000175301
0.00375087
0.0104827
0.00999463
0.00319454
0.000784725
0.00538658
0.00777342
0.00340624
3.75182e-06
0.00219992
0.00518874
0.00328929
-0.000103212
0.000638697
0.00307483
0.00272367
0.000722007
-8.55495e-05
6.22222e-05
0.00163193
0.00196039
0.000533164
-5.7035e-05
-4.71532e-05
0.00080377
0.00129605
0.000399
-3.16331e-05
-5.64346e-05
0.000361835
0.000798891
0.000309845
-1.61262e-05
-4.57714e-05
0.000160018
0.000467698
0.000223743
-7.33537e-06
-3.32213e-05
7.53204e-05
0.000268707
0.000135296
-3.66023e-06
-2.03992e-05
4.48951e-05
0.000153067
5.47427e-05
-2.78446e-06
-1.12661e-05
2.95155e-05
8.49336e-05
2.44115e-05
-1.70647e-06
-5.89251e-06
2.17659e-05
4.5656e-05
1.14137e-05
-2.02251e-08
-1.33772e-06
-1.9866e-06
1.56503e-05
2.37123e-05
5.14778e-06
-1.12663e-08
-1.0669e-06
4.02185e-08
1.11146e-05
1.0404e-05
-9.16232e-08
-7.32853e-07
1.41817e-06
7.02769e-06
3.27593e-06
-8.17448e-09
-2.06437e-07
-2.16839e-07
1.98273e-06
3.86915e-06
1.03894e-06
-5.61536e-08
-1.86137e-07
3.07328e-07
1.77359e-06
1.69235e-06
-3.07045e-08
-8.3812e-08
-2.69141e-08
5.43376e-07
1.12801e-06
4.60071e-07
-1.78859e-08
-4.15873e-08
-3.65976e-08
1.40132e-07
5.11564e-07
4.66814e-07
3.21687e-08
-9.3937e-09
-2.13428e-08
-1.85186e-08
4.36969e-08
2.04934e-07
2.92772e-07
1.0541e-07
-6.59194e-10
-4.43499e-09
-8.93157e-09
-6.21583e-09
2.00491e-08
8.4493e-08
1.40743e-07
7.69564e-08
-4.60247e-11
-5.62232e-10
-1.70809e-09
-2.51115e-09
2.7504e-11
1.14544e-08
3.64528e-08
6.09819e-08
4.80135e-08
7.16349e-09
-1.20672e-13
1.08191e-13
8.03982e-13
-3.24281e-12
-2.40942e-11
-9.72962e-11
-1.7712e-10
1.05477e-10
1.8806e-09
6.87872e-09
1.57079e-08
2.36705e-08
1.91708e-08
5.59077e-09
-1.29786e-13
1.01161e-13
3.52272e-12
1.63901e-11
5.36127e-11
1.63626e-10
5.0041e-10
1.35449e-09
3.13768e-09
5.81394e-09
7.7191e-09
5.50675e-09
1.69682e-09
6.00955e-14
3.1861e-12
1.78966e-11
6.59917e-11
1.86271e-10
4.51582e-10
9.12933e-10
1.44743e-09
1.5718e-09
9.23226e-10
8.50543e-13
3.36496e-12
1.53094e-11
3.90636e-11
8.08332e-11
1.18635e-10
1.43255e-10
0.0155349
0.0196393
0.00932955
0.017444
0.0161123
0.00671692
0.0132797
0.0163837
0.010211
0.00788843
0.0146241
0.0109203
0.00427978
0.0107198
0.0115099
0.00589058
0.00137141
0.00659295
0.0101097
0.00621801
0.00355788
0.00758467
0.00625687
0.00238046
0.0013948
0.00485744
0.0054657
0.00215421
0.000338094
0.00268547
0.00424083
0.00210318
9.89688e-05
0.00128361
0.00290835
0.00194263
2.1814e-06
0.000513329
0.00182862
0.00156945
0.00043869
-1.05903e-05
0.000162822
0.00107475
0.00114832
0.000306454
-7.4795e-06
2.17179e-05
0.000585424
0.000776191
0.000205916
-1.04674e-05
-1.40732e-05
0.000315171
0.000494349
0.000138324
-9.33363e-06
-1.86255e-05
0.000175705
0.000297749
8.41786e-05
-7.51894e-06
-1.56403e-05
0.000101309
0.000171071
4.23339e-05
-7.18192e-06
-1.03196e-05
5.77849e-05
9.3292e-05
2.15241e-05
-5.83616e-06
-5.41134e-06
3.52255e-05
4.8376e-05